date:                Mon Oct 31 23:57:25 GMT 2022
hostname:            nid005741
system:              Linux nid005741 4.12.14-197.78_9.1.64-cray_shasta_c #1 SMP Wed Aug 25 14:56:40 UTC 2021 (4e2a900) x86_64 x86_64 x86_64 GNU/Linux
user:                bcamino
input:               /mnt/lustre/a2fs-work2/work/e05/e05/bcamino/quantum_computing/test_model/optgeom/graphene_3v_M.d12
output:              /mnt/lustre/a2fs-work2/work/e05/e05/bcamino/quantum_computing/test_model/optgeom/graphene_3v_M.out
executable script:   /work/e05/e05/bcamino/runCRYSTAL/Pcry_slurm
executable:          Pcrystal
Command:             srun --hint=nomultithread --distribution=block:block Pcrystal
Slurm JobID:         
temporary directory: /mnt/lustre/a2fs-work2/work/e05/e05/bcamino/quantum_computing/test_model/optgeom/tmp_graphene_3v_M_      
input data /mnt/lustre/a2fs-work2/work/e05/e05/bcamino/quantum_computing/test_model/optgeom/graphene_3v_M.d12
Final
EXTERNAL
SYMMREMO
OPTGEOM
ATOMONLY
END
END
6 8
0 0 6 2.0 1.0
  13575.349682      0.00022245814352
  2035.2333680      0.00172327382520
  463.22562359      0.00892557153140
  131.20019598      0.03572798450200
  42.853015891      0.11076259931000
  15.584185766      0.24295627626000
0 0 2 2.0 1.0
  6.2067138508      0.41440263448000
  2.5764896527      0.23744968655000
0 0 1 0.0 1.0
  0.4941102000      1.00000000000000
0 0 1 0.0 1.0
  0.1644071000      1.00000000000000
0 2 4 2.0 1.0
  34.697232244      0.00533336578050
  7.9582622826      0.03586410909200
  2.3780826883      0.14215873329000
  0.8143320818      0.34270471845000
0 2 1 0.0 1.0
  0.5662417100      1.00000000000000
0 2 1 0.0 1.0
  0.1973545000      1.00000000000000
0 3 1 0.0 1.0
  0.5791584200      1.00000000000000
99 0
ENDBS
DFT
PBE  
ENDDFT
TOLINTEG
8 8 8 8 16
SCFDIR
SHRINK
8 16  
MAXCYCLE
200
TOLDEE
9 
ENDSCF
input data /mnt/lustre/a2fs-work2/work/e05/e05/bcamino/quantum_computing/test_model/optgeom/graphene_3v_M.gui
         128 PROCESSORS WORKING

         
 *******************************************************************************
 *                                                                             *
 *                               CRYSTAL17                                     *
 *                      public : 1.0.2 - March 1st, 2018 STFC/Archer2 build    *
 *                       HTTP://WWW.CRYSTAL.UNITO.IT                           *
 *                                                                             *
 *                              MAIN AUTHORS                                   *
 *                                                                             *
 *  R. DOVESI(1,11), V.R. SAUNDERS(2), C. ROETTI(1,11), R. ORLANDO(1,11),      *
 *  C.M. ZICOVICH-WILSON(1,3), F. PASCALE(4), B. CIVALLERI(1,11),              *
 *  K. DOLL(5), N.M. HARRISON(2,6), I.J. BUSH(7), Ph. D'ARCO(8),               *
 *  M. LLUNELL(9), M. CAUSA'(10), Y. NOEL(8), L. MASCHIO(1,11), A. ERBA(1,11)  *
 *  M. RE'RAT(14), S. CASASSA(1,11)                                            *
 *                                                                             *
 *        CONTRIBUTIONS TO THE CODE HAVE ALSO BEEN GIVEN BY                    *
 *                                                                             *
 *  M. FERRABONE(1,11), M. DE LA PIERRE(1,11), M. FERRERO(1,11),               *
 *  J. BAIMA(1,11), E. ALBANESE(1,11), M.F. PEINTINGER(12), R. BAST(13),       *
 *  B. KIRTMAN(15), V. LACIVITA(1,11), R. DEMICHELIS(1,16)                     *
 *  G. BRANDEBURG(17), S. SALUSTRO(1,11), G. SANSONE(1,11)                     *
 *  M.T. RUGGIERO(18)                                                          *
 *                                                                             *
 * (1) THEORETICAL CHEMISTRY GROUP - UNIVERSITA' DI TORINO - TORINO (ITALY)    *
 * (2) COMPUTATIONAL SCIENCE & ENGINEERING DEPARTMENT - STFC DARESBURY (UK)    *
 * (3) UNIVERSIDAD AUTONOMA DEL ESTADO DE MORELOS - CUERNAVACA (MEXICO)        *
 * (4) UNIVERSITE' DE LORRAINE - NANCY (FRANCE)                                *
 * (5) UNIVERSITAET STUTTGART- STUTTGART (GERMANY)                             *
 * (6) IMPERIAL COLLEGE - LONDON (UK)                                          *
 * (7) OXFORD E-RESEARCH CENTRE - OXFORD (UK)                                  *
 * (8) UPMC - SORBONNE UNIVERSITES - PARIS (FRANCE)                            *
 * (9) UNIVERSIDAD DE BARCELONA - BARCELONA (SPAIN)                            *
 *(10) UNIVERSITA' DI NAPOLI "FEDERICO II" - NAPOLI (ITALY)                    *
 *(11) NIS - NANOSTRUCTURED INTERFACES AND SURFACES - TORINO (ITALY)           *
 *(12) MPI FUER CHEMISCHE ENERGIEKONVERSION - MUELHEIM AN DER RUHR (GERMANY)   *
 *(13) UNIVERSITY OF TROMSO - TROMSO (NORWAY)                                  *
 *(14) UNIVERSITE' DE PAU ET DES PAYS DE L'ADOUR - PAU (FRANCE)                *
 *(15) UNIVERSITY OF CALIFORNIA SANTA BARBARA - SANTA BARBARA (USA)            *
 *(16) CURTIN UNIVERSITY - PERTH (AUSTRALIA)                                   *
 *(17) UNIVERSITY COLLEGE LONDON - LONDON (UK)                                 *
 *(18) CAMBRIDGE UNIVERSITY - CAMBRIDGE (UK)                                   *
 *                                                                             *
 *******************************************************************************
 EEEEEEEEEE STARTING  DATE 31 10 2022 TIME 23:57:28.2
 Final                                                                           

 GEOMETRY INPUT FROM EXTERNAL FILE (FORTRAN UNIT 34)
 3D - CRYSTAL 

 *******************************************************************************
 LATTICE PARAMETERS  (ANGSTROMS AND DEGREES) - PRIMITIVE CELL
       A          B          C        ALPHA      BETA     GAMMA        VOLUME
    7.40317    7.40317    8.68504    90.00000  90.00000 120.00000    412.228566
 INFORMATION **** CHKGRP **** SPGR WITH NO INVERSION

 NUMBER OF IRREDUCIBLE ATOMS IN THE CELL:   15

 CARTESIAN COORDINATES (ANGSTROM) - IRREDUCIBLE ATOMS AND SYMMETRY RELATED

 AT.IRR.  AT  AT.N.          X                   Y                   Z
     1     1     6    2.467724141366E+00  2.849482394607E+00  2.605511400000E+00
     2     2     6    3.701586212049E+00  4.986594190562E+00  2.605511400000E+00
     3     3     6    2.467724141366E+00 -1.424741197304E+00  2.605511400000E+00
     4     4     6    3.701586212049E+00  7.123705986520E-01  2.605511400000E+00
     5     5     6    3.701586212049E+00 -3.561852993259E+00  2.605511400000E+00
     6     6     6    4.935448282733E+00 -1.424741197304E+00  2.605511400000E+00
     7     7     6    6.169310353416E+00  7.123705986520E-01  2.605511400000E+00
     8     8     6    1.233862070683E+00 -7.123705986520E-01  2.605511400000E+00
     9     9     6    2.467724141366E+00  1.424741197304E+00  2.605511400000E+00
    10    10     6    3.701586212049E+00  3.561852993259E+00  2.605511400000E+00
    11    11     6    2.467724141366E+00 -2.849482394607E+00  2.605511400000E+00
    12    12     6    4.935448282733E+00  1.424741197304E+00  2.605511400000E+00
    13    13     6    3.701586212049E+00 -4.986594190562E+00  2.605511400000E+00
    14    14     6    4.935448282733E+00 -2.849482394607E+00  2.605511400000E+00
    15    15     6    6.169310353416E+00 -7.123705986520E-01  2.605511400000E+00

 SPACE  GROUP  N.                     :    1
 NUMBER OF SYMMETRY OPERATORS         :    1
 *******************************************************************************
 LATTICE PARAMETERS (ANGSTROMS AND DEGREES) - BOHR = 0.5291772083 ANGSTROM
 PRIMITIVE CELL - CENTRING CODE 1/0 VOLUME=   412.228566 - DENSITY  0.725 g/cm^3
         A              B              C           ALPHA      BETA       GAMMA 
     7.40317242     7.40317242     8.68503800    90.000000  90.000000 120.000000
 *******************************************************************************
 ATOMS IN THE ASYMMETRIC UNIT   15 - ATOMS IN THE UNIT CELL:   15
     ATOM                 X/A                 Y/B                 Z/C    
 *******************************************************************************
      1 T   6 C     1.111111111111E-01 -4.444444444445E-01  3.000000000000E-01
      2 T   6 C     1.111111111111E-01 -1.111111111111E-01  3.000000000000E-01
      3 T   6 C     4.444444444445E-01  2.222222222222E-01  3.000000000000E-01
      4 T   6 C     4.444444444444E-01 -4.444444444444E-01  3.000000000000E-01
      5 T   6 C    -2.222222222222E-01  2.222222222222E-01  3.000000000000E-01
      6 T   6 C    -2.222222222221E-01 -4.444444444443E-01  3.000000000000E-01
      7 T   6 C    -2.222222222221E-01 -1.111111111110E-01  3.000000000000E-01
      8 T   6 C     2.222222222222E-01  1.111111111111E-01  3.000000000000E-01
      9 T   6 C     2.222222222222E-01  4.444444444445E-01  3.000000000000E-01
     10 T   6 C     2.222222222222E-01 -2.222222222222E-01  3.000000000000E-01
     11 T   6 C    -4.444444444445E-01  1.111111111111E-01  3.000000000000E-01
     12 T   6 C    -4.444444444443E-01 -2.222222222221E-01  3.000000000000E-01
     13 T   6 C    -1.111111111111E-01  1.111111111111E-01  3.000000000000E-01
     14 T   6 C    -1.111111111110E-01  4.444444444446E-01  3.000000000000E-01
     15 T   6 C    -1.111111111110E-01 -2.222222222221E-01  3.000000000000E-01

 T = ATOM BELONGING TO THE ASYMMETRIC UNIT
 *******************************************************************************
 * GEOMETRY EDITING - INPUT COORDINATES ARE GIVEN IN ANGSTROM         
 *******************************************************************************

 USE OF SYMMETRY WILL BE SUBSEQUENTLY SUSPENDED
 INFORMATION **** NEW DEFAULT **** FINALRUN 4 FOR GEOMETRY OPTIMIZATIONS
 INFORMATION **** NEW DEFAULT **** OPTGEOM OPTIMIZES BOTH ATOMIC COORDINATES AND CELL PARAMETERS
 INFORMATION **** NEW DEFAULT **** TOL. ON ATOMIC DISP TO REDEFINE REF. GEOMETRY: 0.8 Angs
 INFORMATION **** NEW DEFAULT **** N POINTS TO REDEFINE REF. GEOMETRY: N OF OPT DEGS OF FREEDOM
 INFORMATION **** NEW DEFAULT **** TOL. ON ENERGY TO REDEFINE REF. GEOMETRY: 10**-3*(5*N. ATOMS)
 INFORMATION **** ATOMONLY **** ONLY ATOMIC COORDINATES ARE OPTIMIZED

 IMPORTANT INFORMATION:
 THE COORDINATE SYSTEM ADOPTED IN THE OPTIMIZATION IS NOT IN
 GENERAL HOMOGENEOUS UNITS. FOR THIS REASON THE GRADIENT AND 
 HESSIAN MATRIX IN TERMS OF THIS SYSTEM ARE GIVEN WITHOUT
 UNITS. FOR MORE DETAILS SEE THE MANUAL.

 *******************************************************************************
 ATOMIC POSITIONS OPTIMIZATION CONTROL

 INITIAL TRUST RADIUS         0.50000 MAXIMUM TRUST RADIUS               4.00000
 MAXIMUM GRADIENT COMPONENT   0.00045 MAXIMUM DISPLACEMENT COMPONENT     0.00180
 R.M.S. OF GRADIENT COMPONENT 0.00030 R.M.S. OF DISPLACEMENT COMPONENTS  0.00120
 THRESHOLD ON ENERGY CHANGE 0.100E-06 EXTRAPOLATING POLYNOMIAL ORDER           2
 MAXIMUM ALLOWED NUMBER OF STEPS   -1 SORTING OF ENERGY POINTS:               NO
 ANALYTICAL  GRADIENT                 HESSIAN UPDATING                      BFGS
 STEP SIZE NUMERICAL GRADIENT 0.00100
 INITIAL HESSIAN MATRIX: SCHLEGEL MODEL 2
 *******************************************************************************


 GCALCO - MAX INDICES DIRECT LATTICE VECTOR    16    16    12
 NO.OF VECTORS CREATED 6999 STARS  379 RMAX   166.99060 BOHR

 GEOMETRY FOR WAVE FUNCTION - DIMENSIONALITY OF THE SYSTEM    3
 (NON PERIODIC DIRECTION: LATTICE PARAMETER FORMALLY SET TO 500)
 *******************************************************************************
 LATTICE PARAMETERS (ANGSTROMS AND DEGREES) - BOHR = 0.5291772083 ANGSTROM
 PRIMITIVE CELL - CENTRING CODE 1/0 VOLUME=   412.228566 - DENSITY  0.725 g/cm^3
         A              B              C           ALPHA      BETA       GAMMA 
     7.40317242     7.40317242     8.68503800    90.000000  90.000000 120.000000
 *******************************************************************************
 ATOMS IN THE ASYMMETRIC UNIT   15 - ATOMS IN THE UNIT CELL:   15
     ATOM                 X/A                 Y/B                 Z/C    
 *******************************************************************************
      1 T   6 C     1.111111111111E-01 -4.444444444445E-01  3.000000000000E-01
      2 T   6 C     1.111111111111E-01 -1.111111111111E-01  3.000000000000E-01
      3 T   6 C     4.444444444445E-01  2.222222222222E-01  3.000000000000E-01
      4 T   6 C     4.444444444444E-01 -4.444444444444E-01  3.000000000000E-01
      5 T   6 C    -2.222222222222E-01  2.222222222222E-01  3.000000000000E-01
      6 T   6 C    -2.222222222221E-01 -4.444444444443E-01  3.000000000000E-01
      7 T   6 C    -2.222222222221E-01 -1.111111111110E-01  3.000000000000E-01
      8 T   6 C     2.222222222222E-01  1.111111111111E-01  3.000000000000E-01
      9 T   6 C     2.222222222222E-01  4.444444444445E-01  3.000000000000E-01
     10 T   6 C     2.222222222222E-01 -2.222222222222E-01  3.000000000000E-01
     11 T   6 C    -4.444444444445E-01  1.111111111111E-01  3.000000000000E-01
     12 T   6 C    -4.444444444443E-01 -2.222222222221E-01  3.000000000000E-01
     13 T   6 C    -1.111111111111E-01  1.111111111111E-01  3.000000000000E-01
     14 T   6 C    -1.111111111110E-01  4.444444444446E-01  3.000000000000E-01
     15 T   6 C    -1.111111111110E-01 -2.222222222221E-01  3.000000000000E-01

 T = ATOM BELONGING TO THE ASYMMETRIC UNIT

 ****    1 SYMMOPS - TRANSLATORS IN FRACTIONAL UNITS
 **** MATRICES AND TRANSLATORS IN THE CRYSTALLOGRAPHIC REFERENCE FRAME
   V INV                    ROTATION MATRICES                   TRANSLATORS
   1   1  1.00  0.00  0.00  0.00  1.00  0.00  0.00  0.00  1.00  0.00  0.00  0.00

 DIRECT LATTICE VECTORS CARTESIAN COMPONENTS (ANGSTROM)
          X                    Y                    Z
   0.370158621205E+01  -0.641133538787E+01   0.000000000000E+00
   0.370158621205E+01   0.641133538787E+01   0.000000000000E+00
   0.000000000000E+00   0.000000000000E+00   0.868503800000E+01


 CARTESIAN COORDINATES - PRIMITIVE CELL
 *******************************************************************************
 *      ATOM          X(ANGSTROM)         Y(ANGSTROM)         Z(ANGSTROM)
 *******************************************************************************
    1     6 C     2.467724141366E+00  2.849482394607E+00  2.605511400000E+00
    2     6 C     3.701586212049E+00  4.986594190562E+00  2.605511400000E+00
    3     6 C     2.467724141366E+00 -1.424741197304E+00  2.605511400000E+00
    4     6 C     3.701586212049E+00  7.123705986520E-01  2.605511400000E+00
    5     6 C     3.701586212049E+00 -3.561852993259E+00  2.605511400000E+00
    6     6 C     4.935448282733E+00 -1.424741197304E+00  2.605511400000E+00
    7     6 C     6.169310353416E+00  7.123705986520E-01  2.605511400000E+00
    8     6 C     1.233862070683E+00 -7.123705986520E-01  2.605511400000E+00
    9     6 C     2.467724141366E+00  1.424741197304E+00  2.605511400000E+00
   10     6 C     3.701586212049E+00  3.561852993259E+00  2.605511400000E+00
   11     6 C     2.467724141366E+00 -2.849482394607E+00  2.605511400000E+00
   12     6 C     4.935448282733E+00  1.424741197304E+00  2.605511400000E+00
   13     6 C     3.701586212049E+00 -4.986594190562E+00  2.605511400000E+00
   14     6 C     4.935448282733E+00 -2.849482394607E+00  2.605511400000E+00
   15     6 C     6.169310353416E+00 -7.123705986520E-01  2.605511400000E+00

 *******************************************************************************
 LOCAL ATOMIC FUNCTIONS BASIS SET
 *******************************************************************************
   ATOM   X(AU)   Y(AU)   Z(AU)  N. TYPE  EXPONENT  S COEF   P COEF   D/F/G COEF
 *******************************************************************************
   1 C    4.663   5.385   4.924
                                  1 S  
                                         1.358E+04 2.225E-04 0.000E+00 0.000E+00
                                         2.035E+03 1.723E-03 0.000E+00 0.000E+00
                                         4.632E+02 8.926E-03 0.000E+00 0.000E+00
                                         1.312E+02 3.573E-02 0.000E+00 0.000E+00
                                         4.285E+01 1.108E-01 0.000E+00 0.000E+00
                                         1.558E+01 2.430E-01 0.000E+00 0.000E+00
                                  2 S  
                                         6.207E+00 4.144E-01 0.000E+00 0.000E+00
                                         2.576E+00 2.374E-01 0.000E+00 0.000E+00
                                  3 S  
                                         4.941E-01 1.000E+00 0.000E+00 0.000E+00
                                  4 S  
                                         1.644E-01 1.000E+00 0.000E+00 0.000E+00
                           5-     7 P  
                                         3.470E+01 0.000E+00 5.333E-03 0.000E+00
                                         7.958E+00 0.000E+00 3.586E-02 0.000E+00
                                         2.378E+00 0.000E+00 1.422E-01 0.000E+00
                                         8.143E-01 0.000E+00 3.427E-01 0.000E+00
                           8-    10 P  
                                         5.662E-01 0.000E+00 1.000E+00 0.000E+00
                          11-    13 P  
                                         1.974E-01 0.000E+00 1.000E+00 0.000E+00
                          14-    18 D  
                                         5.792E-01 0.000E+00 0.000E+00 1.000E+00
   2 C    6.995   9.423   4.924
   3 C    4.663  -2.692   4.924
   4 C    6.995   1.346   4.924
   5 C    6.995  -6.731   4.924
   6 C    9.327  -2.692   4.924
   7 C   11.658   1.346   4.924
   8 C    2.332  -1.346   4.924
   9 C    4.663   2.692   4.924
  10 C    6.995   6.731   4.924
  11 C    4.663  -5.385   4.924
  12 C    9.327   2.692   4.924
  13 C    6.995  -9.423   4.924
  14 C    9.327  -5.385   4.924
  15 C   11.658  -1.346   4.924
 INFORMATION **** SET_MPP **** PCRYSTAL CALCULATION
 INFORMATION **** READM2 **** NEW DEFAULT: FOCK/KS MATRIX MIXING SET TO 30 %
 INFORMATION **** READM2 **** NEW DEFAULT: FULL DIRECT SCF MODE
 INFORMATION **** READM2 **** NEW DEFAULT: COULOMB BIPOLAR BUFFER SET TO 32 Mb
 INFORMATION **** READM2 **** NEW DEFAULT: EXCHANGE BIPOLAR BUFFER SET TO 32 Mb

 *******************************************************************************
 NEW DEFAULT: DFT INTEGRATION GRID INCREASED TO XLGRID
 NEW DEFAULT: DIIS ACCELERATOR ACTIVE
 USE KEYWORD NODIIS TO TURN IT OFF
 *******************************************************************************

 INFORMATION **** TOLINTEG **** COULOMB AND EXCHANGE SERIES TOLERANCES MODIFIED
 INFORMATION **** READM2 **** FULL DIRECT SCF (MONO AND BIEL INT) SELECTED
 INFORMATION **** MAXCYCLE **** MAX NUMBER OF SCF CYCLES SET TO         200
 INFORMATION **** TOLDEE **** SCF TOL ON TOTAL ENERGY SET TO           9
 *******************************************************************************
 N. OF ATOMS PER CELL        15  COULOMB OVERLAP TOL         (T1) 10**   -8
 NUMBER OF SHELLS           120  COULOMB PENETRATION TOL     (T2) 10**   -8
 NUMBER OF AO               270  EXCHANGE OVERLAP TOL        (T3) 10**   20
 N. OF ELECTRONS PER CELL    90  EXCHANGE PSEUDO OVP (F(G))  (T4) 10**   20
 CORE ELECTRONS PER CELL     30  EXCHANGE PSEUDO OVP (P(G))  (T5) 10**   20
 N. OF SYMMETRY OPERATORS     1  POLE ORDER IN MONO ZONE                  4
 *******************************************************************************
 TYPE OF CALCULATION :  RESTRICTED CLOSED SHELL
 KOHN-SHAM HAMILTONIAN

 (EXCHANGE)[CORRELATION] FUNCTIONAL:(PERDEW-BURKE-ERNZERHOF)[PERDEW-BURKE-ERNZERHOF]


 CAPPA:IS1  8;IS2  8;IS3  8; K PTS MONK NET 260; SYMMOPS:K SPACE   2;G SPACE   1

 *******************************************************************************
 MAX NUMBER OF SCF CYCLES     200  CONVERGENCE ON DELTAP        10**-19
 WEIGHT OF F(I) IN F(I+1)      30% CONVERGENCE ON ENERGY        10**- 9
 SHRINK. FACT.(MONKH.)    8  8  8  NUMBER OF K POINTS IN THE IBZ    260
 SHRINKING FACTOR(GILAT NET)   16  NUMBER OF K POINTS(GILAT NET)   2052
 *******************************************************************************
 *** K POINTS COORDINATES (OBLIQUE COORDINATES IN UNITS OF IS =  8)
   1-R(  0  0  0)   2-C(  1  0  0)   3-C(  2  0  0)   4-C(  3  0  0)
   5-R(  4  0  0)   6-C(  0  1  0)   7-C(  1  1  0)   8-C(  2  1  0)
   9-C(  3  1  0)  10-C(  4  1  0)  11-C(  5  1  0)  12-C(  6  1  0)
  13-C(  7  1  0)  14-C(  0  2  0)  15-C(  1  2  0)  16-C(  2  2  0)
  17-C(  3  2  0)  18-C(  4  2  0)  19-C(  5  2  0)  20-C(  6  2  0)
  21-C(  7  2  0)  22-C(  0  3  0)  23-C(  1  3  0)  24-C(  2  3  0)
  25-C(  3  3  0)  26-C(  4  3  0)  27-C(  5  3  0)  28-C(  6  3  0)
  29-C(  7  3  0)  30-R(  0  4  0)  31-C(  1  4  0)  32-C(  2  4  0)
  33-C(  3  4  0)  34-R(  4  4  0)  35-C(  0  0  1)  36-C(  1  0  1)
  37-C(  2  0  1)  38-C(  3  0  1)  39-C(  4  0  1)  40-C(  5  0  1)
  41-C(  6  0  1)  42-C(  7  0  1)  43-C(  0  1  1)  44-C(  1  1  1)
  45-C(  2  1  1)  46-C(  3  1  1)  47-C(  4  1  1)  48-C(  5  1  1)
  49-C(  6  1  1)  50-C(  7  1  1)  51-C(  0  2  1)  52-C(  1  2  1)
  53-C(  2  2  1)  54-C(  3  2  1)  55-C(  4  2  1)  56-C(  5  2  1)
  57-C(  6  2  1)  58-C(  7  2  1)  59-C(  0  3  1)  60-C(  1  3  1)
  61-C(  2  3  1)  62-C(  3  3  1)  63-C(  4  3  1)  64-C(  5  3  1)
  65-C(  6  3  1)  66-C(  7  3  1)  67-C(  0  4  1)  68-C(  1  4  1)
  69-C(  2  4  1)  70-C(  3  4  1)  71-C(  4  4  1)  72-C(  5  4  1)
  73-C(  6  4  1)  74-C(  7  4  1)  75-C(  0  5  1)  76-C(  1  5  1)
  77-C(  2  5  1)  78-C(  3  5  1)  79-C(  4  5  1)  80-C(  5  5  1)
  81-C(  6  5  1)  82-C(  7  5  1)  83-C(  0  6  1)  84-C(  1  6  1)
  85-C(  2  6  1)  86-C(  3  6  1)  87-C(  4  6  1)  88-C(  5  6  1)
  89-C(  6  6  1)  90-C(  7  6  1)  91-C(  0  7  1)  92-C(  1  7  1)
  93-C(  2  7  1)  94-C(  3  7  1)  95-C(  4  7  1)  96-C(  5  7  1)
  97-C(  6  7  1)  98-C(  7  7  1)  99-C(  0  0  2) 100-C(  1  0  2)
 101-C(  2  0  2) 102-C(  3  0  2) 103-C(  4  0  2) 104-C(  5  0  2)
 105-C(  6  0  2) 106-C(  7  0  2) 107-C(  0  1  2) 108-C(  1  1  2)
 109-C(  2  1  2) 110-C(  3  1  2) 111-C(  4  1  2) 112-C(  5  1  2)
 113-C(  6  1  2) 114-C(  7  1  2) 115-C(  0  2  2) 116-C(  1  2  2)
 117-C(  2  2  2) 118-C(  3  2  2) 119-C(  4  2  2) 120-C(  5  2  2)
 121-C(  6  2  2) 122-C(  7  2  2) 123-C(  0  3  2) 124-C(  1  3  2)
 125-C(  2  3  2) 126-C(  3  3  2) 127-C(  4  3  2) 128-C(  5  3  2)
 129-C(  6  3  2) 130-C(  7  3  2) 131-C(  0  4  2) 132-C(  1  4  2)
 133-C(  2  4  2) 134-C(  3  4  2) 135-C(  4  4  2) 136-C(  5  4  2)
 137-C(  6  4  2) 138-C(  7  4  2) 139-C(  0  5  2) 140-C(  1  5  2)
 141-C(  2  5  2) 142-C(  3  5  2) 143-C(  4  5  2) 144-C(  5  5  2)
 145-C(  6  5  2) 146-C(  7  5  2) 147-C(  0  6  2) 148-C(  1  6  2)
 149-C(  2  6  2) 150-C(  3  6  2) 151-C(  4  6  2) 152-C(  5  6  2)
 153-C(  6  6  2) 154-C(  7  6  2) 155-C(  0  7  2) 156-C(  1  7  2)
 157-C(  2  7  2) 158-C(  3  7  2) 159-C(  4  7  2) 160-C(  5  7  2)
 161-C(  6  7  2) 162-C(  7  7  2) 163-C(  0  0  3) 164-C(  1  0  3)
 165-C(  2  0  3) 166-C(  3  0  3) 167-C(  4  0  3) 168-C(  5  0  3)
 169-C(  6  0  3) 170-C(  7  0  3) 171-C(  0  1  3) 172-C(  1  1  3)
 173-C(  2  1  3) 174-C(  3  1  3) 175-C(  4  1  3) 176-C(  5  1  3)
 177-C(  6  1  3) 178-C(  7  1  3) 179-C(  0  2  3) 180-C(  1  2  3)
 181-C(  2  2  3) 182-C(  3  2  3) 183-C(  4  2  3) 184-C(  5  2  3)
 185-C(  6  2  3) 186-C(  7  2  3) 187-C(  0  3  3) 188-C(  1  3  3)
 189-C(  2  3  3) 190-C(  3  3  3) 191-C(  4  3  3) 192-C(  5  3  3)
 193-C(  6  3  3) 194-C(  7  3  3) 195-C(  0  4  3) 196-C(  1  4  3)
 197-C(  2  4  3) 198-C(  3  4  3) 199-C(  4  4  3) 200-C(  5  4  3)
 201-C(  6  4  3) 202-C(  7  4  3) 203-C(  0  5  3) 204-C(  1  5  3)
 205-C(  2  5  3) 206-C(  3  5  3) 207-C(  4  5  3) 208-C(  5  5  3)
 209-C(  6  5  3) 210-C(  7  5  3) 211-C(  0  6  3) 212-C(  1  6  3)
 213-C(  2  6  3) 214-C(  3  6  3) 215-C(  4  6  3) 216-C(  5  6  3)
 217-C(  6  6  3) 218-C(  7  6  3) 219-C(  0  7  3) 220-C(  1  7  3)
 221-C(  2  7  3) 222-C(  3  7  3) 223-C(  4  7  3) 224-C(  5  7  3)
 225-C(  6  7  3) 226-C(  7  7  3) 227-R(  0  0  4) 228-C(  1  0  4)
 229-C(  2  0  4) 230-C(  3  0  4) 231-R(  4  0  4) 232-C(  0  1  4)
 233-C(  1  1  4) 234-C(  2  1  4) 235-C(  3  1  4) 236-C(  4  1  4)
 237-C(  5  1  4) 238-C(  6  1  4) 239-C(  7  1  4) 240-C(  0  2  4)
 241-C(  1  2  4) 242-C(  2  2  4) 243-C(  3  2  4) 244-C(  4  2  4)
 245-C(  5  2  4) 246-C(  6  2  4) 247-C(  7  2  4) 248-C(  0  3  4)
 249-C(  1  3  4) 250-C(  2  3  4) 251-C(  3  3  4) 252-C(  4  3  4)
 253-C(  5  3  4) 254-C(  6  3  4) 255-C(  7  3  4) 256-R(  0  4  4)
 257-C(  1  4  4) 258-C(  2  4  4) 259-C(  3  4  4) 260-R(  4  4  4)

 DIRECT LATTICE VECTORS COMPON. (A.U.)     RECIP. LATTICE VECTORS COMPON. (A.U.) 
        X            Y            Z              X            Y            Z
    6.9949842  -12.1156680    0.0000000      0.4491208   -0.2593000    0.0000000
    6.9949842   12.1156680    0.0000000      0.4491208    0.2593000   -0.0000000
    0.0000000    0.0000000   16.4123433     -0.0000000    0.0000000    0.3828329

 DISK SPACE FOR EIGENVECTORS (FTN 10)    37324800 REALS

 SYMMETRY ADAPTION OF THE BLOCH FUNCTIONS DISABLED
 TTTTTTTTTTTTTTTTTTTTTTTTTTTTTT gordsh1     TELAPSE        2.39 TCPU        0.98

 MATRIX SIZE: P(G)  110880, F(G)   55620, P(G) IRR   55905, F(G) IRR   55905
 MAX G-VECTOR INDEX FOR 1- AND 2-ELECTRON INTEGRALS  27

 TTTTTTTTTTTTTTTTTTTTTTTTTTTTTT INPUT       TELAPSE        2.40 TCPU        0.99

 NEIGHBORS OF THE NON-EQUIVALENT ATOMS

 N = NUMBER OF NEIGHBORS AT DISTANCE R
    ATOM  N     R/ANG      R/AU   NEIGHBORS (ATOM LABELS AND CELL INDICES)
   1 C    3     1.4247     2.6924    9 C    0 0 0   10 C    0 0 0   14 C   -1 0 0
   1 C    4     2.4677     4.6633    2 C    0 0 0    4 C    0 0 0    5 C   -1 0 0
                                     6 C   -1 0 0
   1 C    3     2.8495     5.3847   12 C    0 0 0   13 C   -1 0 0   15 C   -1 0 0
   1 C    4     3.7695     7.1233    8 C    0 0 0    8 C    0 1 0   11 C   -1 0 0
                                    11 C    0 1 0
   1 C    6     4.2742     8.0771    3 C    0 0 0    3 C   -1 0 0    3 C    0 1 0
                                     7 C    0 0 0    7 C   -1-1 0    7 C   -1 0 0
   1 C    4     4.9354     9.3266    2 C    0-1 0    4 C   -1 0 0    5 C    0 1 0
                                     6 C    0 0 0

   2 C    3     1.4247     2.6924    8 C    0 1 0   10 C    0 0 0   15 C   -1 0 0
   2 C    4     2.4677     4.6633    1 C    0 0 0    3 C    0 1 0    6 C   -1 0 0
                                     7 C   -1 0 0
   2 C    3     2.8495     5.3847   11 C    0 1 0   13 C   -1 1 0   14 C   -1 0 0
   2 C    4     3.7695     7.1233    9 C    0 0 0    9 C    0 1 0   12 C    0 0 0
                                    12 C   -1 0 0
   2 C    6     4.2742     8.0771    4 C    0 0 0    4 C   -1 0 0    4 C    0 1 0
                                     5 C   -1 0 0    5 C    0 1 0    5 C   -1 1 0
   2 C    4     4.9354     9.3266    1 C    0 1 0    3 C   -1 0 0    6 C    0 1 0
                                     7 C    0 0 0

   3 C    2     1.4247     2.6924    8 C    0 0 0   11 C    0 0 0
   3 C    4     2.4677     4.6633    2 C    0-1 0    4 C    0 0 0    5 C    0 0 0
                                     6 C    0 0 0
   3 C    3     2.8495     5.3847    9 C    0 0 0   10 C    0-1 0   14 C    0 0 0
   3 C    6     3.7695     7.1233   12 C    0 0 0   12 C    0-1 0   13 C    0 0 0
                                    13 C   -1 0 0   15 C    0 0 0   15 C   -1-1 0
   3 C    6     4.2742     8.0771    1 C    0 0 0    1 C    1 0 0    1 C    0-1 0
                                     7 C    0 0 0    7 C   -1-1 0    7 C    0-1 0
   3 C    4     4.9354     9.3266    2 C    1 0 0    4 C    0-1 0    5 C   -1 0 0
                                     6 C   -1-1 0

   4 C    2     1.4247     2.6924    9 C    0 0 0   12 C    0 0 0
   4 C    4     2.4677     4.6633    1 C    0 0 0    3 C    0 0 0    6 C    0 0 0
                                     7 C    0 0 0
   4 C    3     2.8495     5.3847    8 C    0 0 0   10 C    0 0 0   15 C    0 0 0
   4 C    6     3.7695     7.1233   11 C    0 0 0   11 C    0 1 0   13 C   -1 0 0
                                    13 C    0 1 0   14 C    0 0 0   14 C   -1 0 0
   4 C    6     4.2742     8.0771    2 C    0 0 0    2 C    1 0 0    2 C    0-1 0
                                     5 C    0 0 0    5 C   -1 0 0    5 C    0 1 0
   4 C    4     4.9354     9.3266    1 C    1 0 0    3 C    0 1 0    6 C   -1 0 0
                                     7 C   -1-1 0

   5 C    3     1.4247     2.6924   11 C    0 0 0   13 C    0 0 0   14 C    0 0 0
   5 C    4     2.4677     4.6633    1 C    1 0 0    3 C    0 0 0    6 C    0 0 0
                                     7 C    0-1 0
   5 C    2     2.8495     5.3847    9 C    1 0 0   12 C    0-1 0
   5 C    6     3.7695     7.1233    8 C    0 0 0    8 C    1 0 0   10 C    1 0 0
                                    10 C    0-1 0   15 C    0 0 0   15 C    0-1 0
   5 C    6     4.2742     8.0771    2 C    1 0 0    2 C    0-1 0    2 C    1-1 0
                                     4 C    0 0 0    4 C    1 0 0    4 C    0-1 0
   5 C    4     4.9354     9.3266    1 C    0-1 0    3 C    1 0 0    6 C    0-1 0
                                     7 C    0 0 0

   6 C    2     1.4247     2.6924   14 C    0 0 0   15 C    0 0 0
   6 C    6     2.4677     4.6633    1 C    1 0 0    2 C    1 0 0    3 C    0 0 0
                                     4 C    0 0 0    5 C    0 0 0    7 C    0 0 0
   6 C    3     2.8495     5.3847   10 C    1 0 0   11 C    0 0 0   12 C    0 0 0
   6 C    6     3.7695     7.1233    8 C    0 0 0    8 C    1 1 0    9 C    0 0 0
                                     9 C    1 0 0   13 C    0 0 0   13 C    0 1 0
   6 C    6     4.9354     9.3266    1 C    0 0 0    2 C    0-1 0    3 C    1 1 0
                                     4 C    1 0 0    5 C    0 1 0    7 C    0-1 0
   6 C    6     5.1370     9.7075   10 C    0 0 0   10 C    0-1 0   11 C    1 1 0
                                    11 C    0 1 0   12 C    1 0 0   12 C    0-1 0

   7 C    3     1.4247     2.6924   12 C    0 0 0   13 C    0 1 0   15 C    0 0 0
   7 C    4     2.4677     4.6633    2 C    1 0 0    4 C    0 0 0    5 C    0 1 0
                                     6 C    0 0 0
   7 C    2     2.8495     5.3847    8 C    1 1 0   11 C    0 1 0
   7 C    6     3.7695     7.1233    9 C    0 0 0    9 C    1 1 0   10 C    0 0 0
                                    10 C    1 0 0   14 C    0 0 0   14 C    0 1 0
   7 C    6     4.2742     8.0771    1 C    0 0 0    1 C    1 1 0    1 C    1 0 0
                                     3 C    0 0 0    3 C    1 1 0    3 C    0 1 0
   7 C    4     4.9354     9.3266    2 C    0 0 0    4 C    1 1 0    5 C    0 0 0
                                     6 C    0 1 0

   8 C    2     1.4247     2.6924    2 C    0-1 0    3 C    0 0 0
   8 C    5     2.4677     4.6633    9 C    0 0 0   10 C    0-1 0   11 C    0 0 0
                                    13 C   -1 0 0   15 C   -1-1 0
   8 C    2     2.8495     5.3847    4 C    0 0 0    7 C   -1-1 0
   8 C    6     3.7695     7.1233    1 C    0 0 0    1 C    0-1 0    5 C    0 0 0
                                     5 C   -1 0 0    6 C    0 0 0    6 C   -1-1 0
   8 C    6     4.2742     8.0771   12 C    0 0 0   12 C   -1-1 0   12 C    0-1 0
                                    14 C    0 0 0   14 C   -1-1 0   14 C   -1 0 0
   8 C    5     4.9354     9.3266    9 C    0-1 0   10 C    0 0 0   11 C   -1 0 0
                                    13 C    0 0 0   15 C    0 0 0

   9 C    2     1.4247     2.6924    1 C    0 0 0    4 C    0 0 0
   9 C    5     2.4677     4.6633    8 C    0 0 0   10 C    0 0 0   12 C    0 0 0
                                    13 C   -1 0 0   14 C   -1 0 0
   9 C    2     2.8495     5.3847    3 C    0 0 0    5 C   -1 0 0
   9 C    6     3.7695     7.1233    2 C    0 0 0    2 C    0-1 0    6 C    0 0 0
                                     6 C   -1 0 0    7 C    0 0 0    7 C   -1-1 0
   9 C    6     4.2742     8.0771   11 C    0 0 0   11 C   -1 0 0   11 C    0 1 0
                                    15 C    0 0 0   15 C   -1-1 0   15 C   -1 0 0
   9 C    5     4.9354     9.3266    8 C    0 1 0   10 C    0-1 0   12 C   -1-1 0
                                    13 C    0 1 0   14 C    0 0 0

  10 C    2     1.4247     2.6924    1 C    0 0 0    2 C    0 0 0
  10 C    6     2.4677     4.6633    8 C    0 1 0    9 C    0 0 0   11 C    0 1 0
                                    12 C    0 0 0   14 C   -1 0 0   15 C   -1 0 0
  10 C    3     2.8495     5.3847    3 C    0 1 0    4 C    0 0 0    6 C   -1 0 0
  10 C    4     3.7695     7.1233    5 C   -1 0 0    5 C    0 1 0    7 C    0 0 0
                                     7 C   -1 0 0
  10 C    3     4.2742     8.0771   13 C   -1 0 0   13 C    0 1 0   13 C   -1 1 0
  10 C    6     4.9354     9.3266    8 C    0 0 0    9 C    0 1 0   11 C   -1 0 0
                                    12 C   -1 0 0   14 C    0 1 0   15 C    0 0 0

  11 C    2     1.4247     2.6924    3 C    0 0 0    5 C    0 0 0
  11 C    5     2.4677     4.6633    8 C    0 0 0   10 C    0-1 0   12 C    0-1 0
                                    13 C    0 0 0   14 C    0 0 0
  11 C    3     2.8495     5.3847    2 C    0-1 0    6 C    0 0 0    7 C    0-1 0
  11 C    4     3.7695     7.1233    1 C    1 0 0    1 C    0-1 0    4 C    0 0 0
                                     4 C    0-1 0
  11 C    6     4.2742     8.0771    9 C    0 0 0    9 C    1 0 0    9 C    0-1 0
                                    15 C    0 0 0   15 C   -1-1 0   15 C    0-1 0
  11 C    5     4.9354     9.3266    8 C    1 0 0   10 C    1 0 0   12 C    0 0 0
                                    13 C   -1 0 0   14 C   -1-1 0

  12 C    2     1.4247     2.6924    4 C    0 0 0    7 C    0 0 0
  12 C    5     2.4677     4.6633    9 C    0 0 0   10 C    0 0 0   11 C    0 1 0
                                    13 C    0 1 0   15 C    0 0 0
  12 C    3     2.8495     5.3847    1 C    0 0 0    5 C    0 1 0    6 C    0 0 0
  12 C    4     3.7695     7.1233    2 C    0 0 0    2 C    1 0 0    3 C    0 0 0
                                     3 C    0 1 0
  12 C    6     4.2742     8.0771    8 C    0 0 0    8 C    1 1 0    8 C    0 1 0
                                    14 C    0 0 0   14 C   -1 0 0   14 C    0 1 0
  12 C    5     4.9354     9.3266    9 C    1 1 0   10 C    1 0 0   11 C    0 0 0
                                    13 C   -1 0 0   15 C   -1 0 0

  13 C    2     1.4247     2.6924    5 C    0 0 0    7 C    0-1 0
  13 C    6     2.4677     4.6633    8 C    1 0 0    9 C    1 0 0   11 C    0 0 0
                                    12 C    0-1 0   14 C    0 0 0   15 C    0-1 0
  13 C    2     2.8495     5.3847    1 C    1 0 0    2 C    1-1 0
  13 C    6     3.7695     7.1233    3 C    0 0 0    3 C    1 0 0    4 C    1 0 0
                                     4 C    0-1 0    6 C    0 0 0    6 C    0-1 0
  13 C    3     4.2742     8.0771   10 C    1 0 0   10 C    0-1 0   10 C    1-1 0
  13 C    6     4.9354     9.3266    8 C    0 0 0    9 C    0-1 0   11 C    1 0 0
                                    12 C    1 0 0   14 C    0-1 0   15 C    0 0 0

  14 C    3     1.4247     2.6924    1 C    1 0 0    5 C    0 0 0    6 C    0 0 0
  14 C    5     2.4677     4.6633    9 C    1 0 0   10 C    1 0 0   11 C    0 0 0
                                    13 C    0 0 0   15 C    0 0 0
  14 C    2     2.8495     5.3847    2 C    1 0 0    3 C    0 0 0
  14 C    4     3.7695     7.1233    4 C    0 0 0    4 C    1 0 0    7 C    0 0 0
                                     7 C    0-1 0
  14 C    6     4.2742     8.0771    8 C    0 0 0    8 C    1 1 0    8 C    1 0 0
                                    12 C    0 0 0   12 C    1 0 0   12 C    0-1 0
  14 C    5     4.9354     9.3266    9 C    0 0 0   10 C    0-1 0   11 C    1 1 0
                                    13 C    0 1 0   15 C    0-1 0

  15 C    3     1.4247     2.6924    2 C    1 0 0    6 C    0 0 0    7 C    0 0 0
  15 C    5     2.4677     4.6633    8 C    1 1 0   10 C    1 0 0   12 C    0 0 0
                                    13 C    0 1 0   14 C    0 0 0
  15 C    2     2.8495     5.3847    1 C    1 0 0    4 C    0 0 0
  15 C    4     3.7695     7.1233    3 C    0 0 0    3 C    1 1 0    5 C    0 0 0
                                     5 C    0 1 0
  15 C    6     4.2742     8.0771    9 C    0 0 0    9 C    1 1 0    9 C    1 0 0
                                    11 C    0 0 0   11 C    1 1 0   11 C    0 1 0
  15 C    5     4.9354     9.3266    8 C    0 0 0   10 C    0 0 0   12 C    1 0 0
                                    13 C    0 0 0   14 C    0 1 0


 SYMMETRY ALLOWED INTERNAL DEGREE(S) OF FREEDOM:  42
 TTTTTTTTTTTTTTTTTTTTTTTTTTTTTT SYMM        TELAPSE        2.40 TCPU        0.99
 TTTTTTTTTTTTTTTTTTTTTTTTTTTTTT INT_SCREEN  TELAPSE        2.40 TCPU        0.99

 *******************************************************************************
 *                             OPTIMIZATION STARTS                             *
 *******************************************************************************
 RECLASIFICATION OF INDICES FOR INTEGRAL CALC ACCORDING TO DIFFERENT CRITERIA:
           FIXDELTE                  FIXDELTX              FIXDELTN
          0.10000000               0.80000000                 42
 DEFAULT MAX NUM OF POINTS  100
 *******************************************************************************

 *******************************************************************************
 COORDINATE OPTIMIZATION - POINT    1
 INFORMATION **** EXCBUF **** EXCH. BIPO BUFFER: WORDS USED =           0

 DFT PARAMETERS

     ATOM       ELECTRONS   NET CHARGE   R(ANGSTROM)
   1   6  C       6.0000      0.0000     0.77000000

 SIZE OF GRID=     505074
 TTTTTTTTTTTTTTTTTTTTTTTTTTTTTT MAKE_GRID2  TELAPSE        2.76 TCPU        1.35
 BECKE WEIGHT FUNCTION
 RADSAFE =     2.00
 TOLERANCES - DENSITY:10**- 6; POTENTIAL:10**- 9; GRID WGT:10**-14

 RADIAL INTEGRATION  - INTERVALS (POINTS,UPPER LIMIT):            1( 75,  4.0*R)

 ANGULAR INTEGRATION - INTERVALS (ACCURACY LEVEL [N. POINTS] UPPER LIMIT):
  1(  4[  86]   0.2)  2(  8[ 194]   0.5)  3( 12[ 350]   0.9)  4( 16[ 974]   3.5)
  5( 12[ 350]9999.0)
 TTTTTTTTTTTTTTTTTTTTTTTTTTTTTT INT_CALC    TELAPSE        2.78 TCPU        1.37

 *******************************************************************************
 Final                                                                           
 CRYSTAL - SCF - TYPE OF CALCULATION :  RESTRICTED CLOSED SHELL
 *******************************************************************************

 CAPPA:IS1  8;IS2  8;IS3  8; K PTS MONK NET 260; SYMMOPS:K SPACE   2;G SPACE   1

 TTTTTTTTTTTTTTTTTTTTTTTTTTTTTT SDIK        TELAPSE        2.84 TCPU        1.43

 AAAAAAAAAAAAAAAAAAAAAAAAAAAAAAAAAAAAAAAAAAAAAAAAAAAAAAAAAAAAAAAAAAAAAAAAAAAAAAA
         ATOMIC WAVEFUNCTION(S)


 NUCLEAR CHARGE  6.0  SYMMETRY SPECIES            S    P
 N. ELECTRONS    6.0  NUMBER OF PRIMITIVE GTOS   10    6
                      NUMBER OF CONTRACTED GTOS   4    3
                      NUMBER OF CLOSED SHELLS     2    0
                      OPEN SHELL OCCUPATION       0    2

  ZNUC SCFIT  TOTAL HF ENERGY   KINETIC ENERGY   VIRIAL THEOREM ACCURACY
   6.0  10   -3.768111494E+01  3.771190961E+01 -1.999183423E+00  3.4E-06

 AAAAAAAAAAAAAAAAAAAAAAAAAAAAAAAAAAAAAAAAAAAAAAAAAAAAAAAAAAAAAAAAAAAAAAAAAAAAAAA

 CHARGE NORMALIZATION FACTOR   1.00000000
 TOTAL ATOMIC CHARGES:
   6.0000000   6.0000000   6.0000000   6.0000000   6.0000000   6.0000000
   6.0000000   6.0000000   6.0000000   6.0000000   6.0000000   6.0000000
   6.0000000   6.0000000   6.0000000
 TTTTTTTTTTTTTTTTTTTTTTTTTTTTTT MOQGAD      TELAPSE        2.86 TCPU        1.44
 TTTTTTTTTTTTTTTTTTTTTTTTTTTTTT SHELLXN     TELAPSE        3.46 TCPU        2.05
 TTTTTTTTTTTTTTTTTTTTTTTTTTTTTT MONMO3      TELAPSE        3.56 TCPU        2.15
 NUMERICALLY INTEGRATED DENSITY     89.9998026091
 TTTTTTTTTTTTTTTTTTTTTTTTTTTTTT NUMDFT      TELAPSE        3.71 TCPU        2.30
 CYC   0 ETOT(AU) -5.736141142304E+02 DETOT -5.74E+02 tst  0.00E+00 PX  1.00E+00
 TTTTTTTTTTTTTTTTTTTTTTTTTTTTTT DIIS        TELAPSE        3.72 TCPU        2.31
 TTTTTTTTTTTTTTTTTTTTTTTTTTTTTT FDIK        TELAPSE        3.89 TCPU        2.47
 POSSIBLY CONDUCTING STATE - EFERMI(AU) -2.3024437E-01 (RES. CHARGE  2.98E-13;IT. 14)
 TTTTTTTTTTTTTTTTTTTTTTTTTTTTTT PDIG        TELAPSE        3.98 TCPU        2.57
 CHARGE NORMALIZATION FACTOR   1.00000000
 TOTAL ATOMIC CHARGES:
   6.0817683   6.0817600   6.1416526   6.1416421   6.0877459   6.1891540
   6.0877865   5.7517516   5.7519900   5.8871928   5.9380017   5.9381554
   5.7840032   6.0686893   6.0687066
 TTTTTTTTTTTTTTTTTTTTTTTTTTTTTT MOQGAD      TELAPSE        3.98 TCPU        2.57
 TTTTTTTTTTTTTTTTTTTTTTTTTTTTTT SHELLXN     TELAPSE        4.70 TCPU        3.28
 TTTTTTTTTTTTTTTTTTTTTTTTTTTTTT MONMO3      TELAPSE        4.80 TCPU        3.39
 NUMERICALLY INTEGRATED DENSITY     89.9998421533
 TTTTTTTTTTTTTTTTTTTTTTTTTTTTTT NUMDFT      TELAPSE        5.08 TCPU        3.66
 CYC   1 ETOT(AU) -5.702654674966E+02 DETOT  3.35E+00 tst  0.00E+00 PX  1.00E+00
 TTTTTTTTTTTTTTTTTTTTTTTTTTTTTT DIIS        TELAPSE        5.10 TCPU        3.68
 DIIS TEST: 0.10103E+01 AT SCF   CYCLE   1 - MIX   30 %
 TTTTTTTTTTTTTTTTTTTTTTTTTTTTTT FDIK        TELAPSE        5.26 TCPU        3.84
 POSSIBLY CONDUCTING STATE - EFERMI(AU) -2.0260649E-01 (RES. CHARGE  2.27E-13;IT. 10)
 TTTTTTTTTTTTTTTTTTTTTTTTTTTTTT PDIG        TELAPSE        5.36 TCPU        3.94
 CHARGE NORMALIZATION FACTOR   1.00000000
 TOTAL ATOMIC CHARGES:
   5.7561185   5.7560263   5.5923274   5.5922511   5.7086688   4.8740950
   5.7086199   7.0931337   7.0943102   6.0345692   5.9955067   5.9963753
   7.3608392   5.7184787   5.7186800
 TTTTTTTTTTTTTTTTTTTTTTTTTTTTTT MOQGAD      TELAPSE        5.36 TCPU        3.94
 TTTTTTTTTTTTTTTTTTTTTTTTTTTTTT SHELLXN     TELAPSE        6.07 TCPU        4.65
 TTTTTTTTTTTTTTTTTTTTTTTTTTTTTT MONMO3      TELAPSE        6.17 TCPU        4.75
 NUMERICALLY INTEGRATED DENSITY     89.9998169172
 TTTTTTTTTTTTTTTTTTTTTTTTTTTTTT NUMDFT      TELAPSE        6.44 TCPU        5.02
 CYC   2 ETOT(AU) -5.688665433254E+02 DETOT  1.40E+00 tst  6.91E-02 PX  3.06E-01
 TTTTTTTTTTTTTTTTTTTTTTTTTTTTTT DIIS        TELAPSE        6.45 TCPU        5.03
 DIIS TEST: 0.13561E+02 AT SCF   CYCLE   2 - DIIS ACTIVE - HISTORY:     2 CYCLES
 TTTTTTTTTTTTTTTTTTTTTTTTTTTTTT FDIK        TELAPSE        6.63 TCPU        5.21
 POSSIBLY CONDUCTING STATE - EFERMI(AU) -1.6450985E-01 (RES. CHARGE  5.27E-10;IT.  8)
 TTTTTTTTTTTTTTTTTTTTTTTTTTTTTT PDIG        TELAPSE        6.73 TCPU        5.31
 CHARGE NORMALIZATION FACTOR   1.00000000
 TOTAL ATOMIC CHARGES:
   5.8080361   5.8079715   5.9457878   5.9446179   5.8003442   6.2924033
   5.8003588   5.8040109   5.8007459   6.5855973   6.4414751   6.4386577
   5.6281939   5.9509973   5.9508022
 TTTTTTTTTTTTTTTTTTTTTTTTTTTTTT MOQGAD      TELAPSE        6.73 TCPU        5.31
 TTTTTTTTTTTTTTTTTTTTTTTTTTTTTT SHELLXN     TELAPSE        7.44 TCPU        6.02
 TTTTTTTTTTTTTTTTTTTTTTTTTTTTTT MONMO3      TELAPSE        7.55 TCPU        6.13
 NUMERICALLY INTEGRATED DENSITY     89.9998047314
 TTTTTTTTTTTTTTTTTTTTTTTTTTTTTT NUMDFT      TELAPSE        7.92 TCPU        6.49
 CYC   3 ETOT(AU) -5.701398998677E+02 DETOT -1.27E+00 tst  1.35E-01 PX  3.14E-01
 TTTTTTTTTTTTTTTTTTTTTTTTTTTTTT DIIS        TELAPSE        7.95 TCPU        6.52
 DIIS TEST: 0.22011E+01 AT SCF   CYCLE   3 - DIIS ACTIVE - HISTORY:     3 CYCLES
 TTTTTTTTTTTTTTTTTTTTTTTTTTTTTT FDIK        TELAPSE        8.11 TCPU        6.68
 POSSIBLY CONDUCTING STATE - EFERMI(AU) -1.6555529E-01 (RES. CHARGE  1.69E-10;IT. 12)
 TTTTTTTTTTTTTTTTTTTTTTTTTTTTTT PDIG        TELAPSE        8.21 TCPU        6.78
 CHARGE NORMALIZATION FACTOR   1.00000000
 TOTAL ATOMIC CHARGES:
   5.9806596   5.9804594   6.1426458   6.1442214   5.9998851   6.2192182
   5.9999335   6.0939959   6.0969813   5.4386357   5.7945880   5.7973996
   6.1902307   6.0605486   6.0605974
 TTTTTTTTTTTTTTTTTTTTTTTTTTTTTT MOQGAD      TELAPSE        8.21 TCPU        6.78
 TTTTTTTTTTTTTTTTTTTTTTTTTTTTTT SHELLXN     TELAPSE        8.92 TCPU        7.49
 TTTTTTTTTTTTTTTTTTTTTTTTTTTTTT MONMO3      TELAPSE        9.03 TCPU        7.60
 NUMERICALLY INTEGRATED DENSITY     89.9998096970
 TTTTTTTTTTTTTTTTTTTTTTTTTTTTTT NUMDFT      TELAPSE        9.28 TCPU        7.85
 CYC   4 ETOT(AU) -5.702754179770E+02 DETOT -1.36E-01 tst  7.18E-02 PX  1.95E-01
 TTTTTTTTTTTTTTTTTTTTTTTTTTTTTT DIIS        TELAPSE        9.30 TCPU        7.87
 DIIS TEST: 0.11333E+01 AT SCF   CYCLE   4 - DIIS ACTIVE - HISTORY:     4 CYCLES
 TTTTTTTTTTTTTTTTTTTTTTTTTTTTTT FDIK        TELAPSE        9.48 TCPU        8.04
 POSSIBLY CONDUCTING STATE - EFERMI(AU) -1.7652840E-01 (RES. CHARGE  2.73E-12;IT. 18)
 TTTTTTTTTTTTTTTTTTTTTTTTTTTTTT PDIG        TELAPSE        9.58 TCPU        8.15
 CHARGE NORMALIZATION FACTOR   1.00000000
 TOTAL ATOMIC CHARGES:
   6.0310366   6.0313387   5.9982202   5.9977369   6.0101576   5.5560854
   6.0100289   6.0345695   6.0324482   6.1735434   5.9699243   5.9689006
   6.1274016   6.0293410   6.0292671
 TTTTTTTTTTTTTTTTTTTTTTTTTTTTTT MOQGAD      TELAPSE        9.58 TCPU        8.15
 TTTTTTTTTTTTTTTTTTTTTTTTTTTTTT SHELLXN     TELAPSE       10.29 TCPU        8.86
 TTTTTTTTTTTTTTTTTTTTTTTTTTTTTT MONMO3      TELAPSE       10.40 TCPU        8.96
 NUMERICALLY INTEGRATED DENSITY     89.9998091510
 TTTTTTTTTTTTTTTTTTTTTTTTTTTTTT NUMDFT      TELAPSE       10.65 TCPU        9.22
 CYC   5 ETOT(AU) -5.703504451856E+02 DETOT -7.50E-02 tst  9.03E-03 PX  1.08E-01
 TTTTTTTTTTTTTTTTTTTTTTTTTTTTTT DIIS        TELAPSE       10.67 TCPU        9.24
 DIIS TEST: 0.45109E+00 AT SCF   CYCLE   5 - DIIS ACTIVE - HISTORY:     5 CYCLES
 TTTTTTTTTTTTTTTTTTTTTTTTTTTTTT FDIK        TELAPSE       10.85 TCPU        9.42
 POSSIBLY CONDUCTING STATE - EFERMI(AU) -1.8675936E-01 (RES. CHARGE  7.74E-11;IT. 14)
 TTTTTTTTTTTTTTTTTTTTTTTTTTTTTT PDIG        TELAPSE       10.95 TCPU        9.51
 CHARGE NORMALIZATION FACTOR   1.00000000
 TOTAL ATOMIC CHARGES:
   5.9649715   5.9647680   5.9807427   5.9805061   5.9632226   6.0233417
   5.9632384   6.0577797   6.0619520   5.8508840   6.0567490   6.0553826
   6.1170144   5.9797164   5.9797306
 TTTTTTTTTTTTTTTTTTTTTTTTTTTTTT MOQGAD      TELAPSE       10.95 TCPU        9.52
 TTTTTTTTTTTTTTTTTTTTTTTTTTTTTT SHELLXN     TELAPSE       11.66 TCPU       10.22
 TTTTTTTTTTTTTTTTTTTTTTTTTTTTTT MONMO3      TELAPSE       11.77 TCPU       10.33
 NUMERICALLY INTEGRATED DENSITY     89.9998150713
 TTTTTTTTTTTTTTTTTTTTTTTTTTTTTT NUMDFT      TELAPSE       12.03 TCPU       10.59
 CYC   6 ETOT(AU) -5.703988792434E+02 DETOT -4.84E-02 tst  6.37E-03 PX  6.81E-02
 TTTTTTTTTTTTTTTTTTTTTTTTTTTTTT DIIS        TELAPSE       12.04 TCPU       10.60
 DIIS TEST: 0.61765E-01 AT SCF   CYCLE   6 - DIIS ACTIVE - HISTORY:     6 CYCLES
 TTTTTTTTTTTTTTTTTTTTTTTTTTTTTT FDIK        TELAPSE       12.22 TCPU       10.78
 POSSIBLY CONDUCTING STATE - EFERMI(AU) -1.8757671E-01 (RES. CHARGE  5.36E-11;IT. 14)
 TTTTTTTTTTTTTTTTTTTTTTTTTTTTTT PDIG        TELAPSE       12.32 TCPU       10.88
 CHARGE NORMALIZATION FACTOR   1.00000000
 TOTAL ATOMIC CHARGES:
   5.9598969   5.9602810   6.0419558   6.0417086   5.9472160   6.0665812
   5.9472870   6.0349147   6.0273234   6.0204474   5.9672084   5.9703636
   6.0250222   5.9947544   5.9950395
 TTTTTTTTTTTTTTTTTTTTTTTTTTTTTT MOQGAD      TELAPSE       12.32 TCPU       10.88
 TTTTTTTTTTTTTTTTTTTTTTTTTTTTTT SHELLXN     TELAPSE       13.04 TCPU       11.59
 TTTTTTTTTTTTTTTTTTTTTTTTTTTTTT MONMO3      TELAPSE       13.14 TCPU       11.70
 NUMERICALLY INTEGRATED DENSITY     89.9998162497
 TTTTTTTTTTTTTTTTTTTTTTTTTTTTTT NUMDFT      TELAPSE       13.40 TCPU       11.95
 CYC   7 ETOT(AU) -5.704035896563E+02 DETOT -4.71E-03 tst  4.95E-04 PX  2.77E-02
 TTTTTTTTTTTTTTTTTTTTTTTTTTTTTT DIIS        TELAPSE       13.42 TCPU       11.97
 DIIS TEST: 0.30044E-01 AT SCF   CYCLE   7 - DIIS ACTIVE - HISTORY:     7 CYCLES
 TTTTTTTTTTTTTTTTTTTTTTTTTTTTTT FDIK        TELAPSE       13.60 TCPU       12.15
 POSSIBLY CONDUCTING STATE - EFERMI(AU) -1.8701021E-01 (RES. CHARGE  3.41E-10;IT. 10)
 TTTTTTTTTTTTTTTTTTTTTTTTTTTTTT PDIG        TELAPSE       13.70 TCPU       12.25
 CHARGE NORMALIZATION FACTOR   1.00000000
 TOTAL ATOMIC CHARGES:
   5.9547288   5.9540891   6.0325493   6.0331286   5.9619258   6.0115802
   5.9616554   5.9838408   5.9900540   5.9785742   6.0299113   6.0280395
   6.0580160   6.0111614   6.0107456
 TTTTTTTTTTTTTTTTTTTTTTTTTTTTTT MOQGAD      TELAPSE       13.70 TCPU       12.25
 TTTTTTTTTTTTTTTTTTTTTTTTTTTTTT SHELLXN     TELAPSE       14.41 TCPU       12.96
 TTTTTTTTTTTTTTTTTTTTTTTTTTTTTT MONMO3      TELAPSE       14.52 TCPU       13.07
 NUMERICALLY INTEGRATED DENSITY     89.9998158988
 TTTTTTTTTTTTTTTTTTTTTTTTTTTTTT NUMDFT      TELAPSE       14.88 TCPU       13.43
 CYC   8 ETOT(AU) -5.704065154530E+02 DETOT -2.93E-03 tst  5.51E-05 PX  9.03E-03
 TTTTTTTTTTTTTTTTTTTTTTTTTTTTTT DIIS        TELAPSE       14.91 TCPU       13.46
 DIIS TEST: 0.34119E-02 AT SCF   CYCLE   8 - DIIS ACTIVE - HISTORY:     8 CYCLES
 TTTTTTTTTTTTTTTTTTTTTTTTTTTTTT FDIK        TELAPSE       15.08 TCPU       13.63
 POSSIBLY CONDUCTING STATE - EFERMI(AU) -1.8664834E-01 (RES. CHARGE  8.59E-10;IT.  8)
 TTTTTTTTTTTTTTTTTTTTTTTTTTTTTT PDIG        TELAPSE       15.17 TCPU       13.72
 CHARGE NORMALIZATION FACTOR   1.00000000
 TOTAL ATOMIC CHARGES:
   5.9651064   5.9659193   6.0162684   6.0155396   5.9624102   6.0149778
   5.9627681   6.0124890   6.0061890   5.9802259   6.0309489   6.0316576
   6.0161423   6.0094441   6.0099133
 TTTTTTTTTTTTTTTTTTTTTTTTTTTTTT MOQGAD      TELAPSE       15.18 TCPU       13.72
 TTTTTTTTTTTTTTTTTTTTTTTTTTTTTT SHELLXN     TELAPSE       15.89 TCPU       14.43
 TTTTTTTTTTTTTTTTTTTTTTTTTTTTTT MONMO3      TELAPSE       15.99 TCPU       14.54
 NUMERICALLY INTEGRATED DENSITY     89.9998156414
 TTTTTTTTTTTTTTTTTTTTTTTTTTTTTT NUMDFT      TELAPSE       16.25 TCPU       14.80
 CYC   9 ETOT(AU) -5.704068037842E+02 DETOT -2.88E-04 tst  1.34E-05 PX  5.83E-03
 TTTTTTTTTTTTTTTTTTTTTTTTTTTTTT DIIS        TELAPSE       16.27 TCPU       14.81
 DIIS TEST: 0.10343E-02 AT SCF   CYCLE   9 - DIIS ACTIVE - HISTORY:     9 CYCLES
 TTTTTTTTTTTTTTTTTTTTTTTTTTTTTT FDIK        TELAPSE       16.45 TCPU       14.99
 POSSIBLY CONDUCTING STATE - EFERMI(AU) -1.8636896E-01 (RES. CHARGE  9.81E-12;IT. 10)
 TTTTTTTTTTTTTTTTTTTTTTTTTTTTTT PDIG        TELAPSE       16.55 TCPU       15.09
 CHARGE NORMALIZATION FACTOR   1.00000000
 TOTAL ATOMIC CHARGES:
   5.9668674   5.9660320   6.0189242   6.0194388   5.9642385   6.0047952
   5.9639350   5.9949055   6.0026585   5.9982130   6.0293378   6.0273336
   6.0360105   6.0038793   6.0034306
 TTTTTTTTTTTTTTTTTTTTTTTTTTTTTT MOQGAD      TELAPSE       16.55 TCPU       15.09
 TTTTTTTTTTTTTTTTTTTTTTTTTTTTTT SHELLXN     TELAPSE       17.26 TCPU       15.80
 TTTTTTTTTTTTTTTTTTTTTTTTTTTTTT MONMO3      TELAPSE       17.37 TCPU       15.91
 NUMERICALLY INTEGRATED DENSITY     89.9998150970
 TTTTTTTTTTTTTTTTTTTTTTTTTTTTTT NUMDFT      TELAPSE       17.63 TCPU       16.17
 CYC  10 ETOT(AU) -5.704069178746E+02 DETOT -1.14E-04 tst  9.44E-06 PX  6.00E-03
 TTTTTTTTTTTTTTTTTTTTTTTTTTTTTT DIIS        TELAPSE       17.65 TCPU       16.19
 DIIS TEST: 0.16219E-03 AT SCF   CYCLE  10 - DIIS ACTIVE - HISTORY:    10 CYCLES
 TTTTTTTTTTTTTTTTTTTTTTTTTTTTTT FDIK        TELAPSE       17.83 TCPU       16.37
 POSSIBLY CONDUCTING STATE - EFERMI(AU) -1.8644675E-01 (RES. CHARGE  2.30E-10;IT.  8)
 TTTTTTTTTTTTTTTTTTTTTTTTTTTTTT PDIG        TELAPSE       17.93 TCPU       16.47
 CHARGE NORMALIZATION FACTOR   1.00000000
 TOTAL ATOMIC CHARGES:
   5.9648418   5.9658905   6.0210788   6.0205821   5.9629291   5.9984806
   5.9634622   6.0067282   5.9943110   5.9976265   6.0256919   6.0336348
   6.0361007   6.0039706   6.0046713
 TTTTTTTTTTTTTTTTTTTTTTTTTTTTTT MOQGAD      TELAPSE       17.93 TCPU       16.47
 TTTTTTTTTTTTTTTTTTTTTTTTTTTTTT SHELLXN     TELAPSE       18.64 TCPU       17.18
 TTTTTTTTTTTTTTTTTTTTTTTTTTTTTT MONMO3      TELAPSE       18.75 TCPU       17.29
 NUMERICALLY INTEGRATED DENSITY     89.9998149815
 TTTTTTTTTTTTTTTTTTTTTTTTTTTTTT NUMDFT      TELAPSE       19.01 TCPU       17.55
 CYC  11 ETOT(AU) -5.704068991305E+02 DETOT  1.87E-05 tst  1.58E-06 PX  2.56E-03
 TTTTTTTTTTTTTTTTTTTTTTTTTTTTTT DIIS        TELAPSE       19.06 TCPU       17.60
 DIIS TEST: 0.27210E-03 AT SCF   CYCLE  11 - DIIS ACTIVE - HISTORY:    11 CYCLES
 TTTTTTTTTTTTTTTTTTTTTTTTTTTTTT FDIK        TELAPSE       19.26 TCPU       17.78
 POSSIBLY CONDUCTING STATE - EFERMI(AU) -1.8653383E-01 (RES. CHARGE  1.07E-10;IT.  8)
 TTTTTTTTTTTTTTTTTTTTTTTTTTTTTT PDIG        TELAPSE       19.35 TCPU       17.88
 CHARGE NORMALIZATION FACTOR   1.00000000
 TOTAL ATOMIC CHARGES:
   5.9649464   5.9651541   6.0205610   6.0199338   5.9626092   6.0041059
   5.9624151   6.0014365   6.0002068   5.9943395   6.0306446   6.0280635
   6.0344204   6.0056894   6.0054739
 TTTTTTTTTTTTTTTTTTTTTTTTTTTTTT MOQGAD      TELAPSE       19.36 TCPU       17.88
 TTTTTTTTTTTTTTTTTTTTTTTTTTTTTT SHELLXN     TELAPSE       20.07 TCPU       18.59
 TTTTTTTTTTTTTTTTTTTTTTTTTTTTTT MONMO3      TELAPSE       20.18 TCPU       18.70
 NUMERICALLY INTEGRATED DENSITY     89.9998152494
 TTTTTTTTTTTTTTTTTTTTTTTTTTTTTT NUMDFT      TELAPSE       20.53 TCPU       19.05
 CYC  12 ETOT(AU) -5.704069361628E+02 DETOT -3.70E-05 tst  4.10E-07 PX  2.34E-03
 TTTTTTTTTTTTTTTTTTTTTTTTTTTTTT DIIS        TELAPSE       20.56 TCPU       19.08
 DIIS TEST: 0.14841E-04 AT SCF   CYCLE  12 - DIIS ACTIVE - HISTORY:    12 CYCLES
 TTTTTTTTTTTTTTTTTTTTTTTTTTTTTT FDIK        TELAPSE       20.75 TCPU       19.23
 POSSIBLY CONDUCTING STATE - EFERMI(AU) -1.8655768E-01 (RES. CHARGE  5.68E-14;IT.  8)
 TTTTTTTTTTTTTTTTTTTTTTTTTTTTTT PDIG        TELAPSE       20.85 TCPU       19.32
 CHARGE NORMALIZATION FACTOR   1.00000000
 TOTAL ATOMIC CHARGES:
   5.9647778   5.9647461   6.0198671   6.0201509   5.9625509   6.0046212
   5.9627137   6.0008464   6.0012234   5.9943675   6.0283847   6.0301592
   6.0339952   6.0057037   6.0058922
 TTTTTTTTTTTTTTTTTTTTTTTTTTTTTT MOQGAD      TELAPSE       20.85 TCPU       19.32
 TTTTTTTTTTTTTTTTTTTTTTTTTTTTTT SHELLXN     TELAPSE       21.56 TCPU       20.03
 TTTTTTTTTTTTTTTTTTTTTTTTTTTTTT MONMO3      TELAPSE       21.67 TCPU       20.14
 NUMERICALLY INTEGRATED DENSITY     89.9998152599
 TTTTTTTTTTTTTTTTTTTTTTTTTTTTTT NUMDFT      TELAPSE       21.92 TCPU       20.40
 CYC  13 ETOT(AU) -5.704069378438E+02 DETOT -1.68E-06 tst  1.47E-07 PX  3.24E-04
 TTTTTTTTTTTTTTTTTTTTTTTTTTTTTT DIIS        TELAPSE       21.95 TCPU       20.42
 DIIS TEST: 0.61009E-05 AT SCF   CYCLE  13 - DIIS ACTIVE - HISTORY:    13 CYCLES
 TTTTTTTTTTTTTTTTTTTTTTTTTTTTTT FDIK        TELAPSE       22.13 TCPU       20.61
 POSSIBLY CONDUCTING STATE - EFERMI(AU) -1.8657070E-01 (RES. CHARGE  7.11E-15;IT.  8)
 TTTTTTTTTTTTTTTTTTTTTTTTTTTTTT PDIG        TELAPSE       22.23 TCPU       20.70
 CHARGE NORMALIZATION FACTOR   1.00000000
 TOTAL ATOMIC CHARGES:
   5.9645552   5.9645963   6.0199513   6.0198259   5.9628783   6.0054654
   5.9628595   6.0012513   6.0007129   5.9943286   6.0289418   6.0292321
   6.0337837   6.0058303   6.0057875
 TTTTTTTTTTTTTTTTTTTTTTTTTTTTTT MOQGAD      TELAPSE       22.23 TCPU       20.70
 TTTTTTTTTTTTTTTTTTTTTTTTTTTTTT SHELLXN     TELAPSE       22.94 TCPU       21.41
 TTTTTTTTTTTTTTTTTTTTTTTTTTTTTT MONMO3      TELAPSE       23.05 TCPU       21.52
 NUMERICALLY INTEGRATED DENSITY     89.9998152693
 TTTTTTTTTTTTTTTTTTTTTTTTTTTTTT NUMDFT      TELAPSE       23.31 TCPU       21.78
 CYC  14 ETOT(AU) -5.704069387333E+02 DETOT -8.89E-07 tst  2.38E-08 PX  1.74E-04
 TTTTTTTTTTTTTTTTTTTTTTTTTTTTTT DIIS        TELAPSE       23.33 TCPU       21.80
 DIIS TEST: 0.10301E-05 AT SCF   CYCLE  14 - DIIS ACTIVE - HISTORY:    14 CYCLES
 TTTTTTTTTTTTTTTTTTTTTTTTTTTTTT FDIK        TELAPSE       23.51 TCPU       21.98
 POSSIBLY CONDUCTING STATE - EFERMI(AU) -1.8656861E-01 (RES. CHARGE  2.27E-13;IT.  6)
 TTTTTTTTTTTTTTTTTTTTTTTTTTTTTT PDIG        TELAPSE       23.61 TCPU       22.08
 CHARGE NORMALIZATION FACTOR   1.00000000
 TOTAL ATOMIC CHARGES:
   5.9646465   5.9646697   6.0201805   6.0201175   5.9627849   6.0052290
   5.9627772   6.0011341   6.0010101   5.9938767   6.0291234   6.0292786
   6.0336921   6.0057524   6.0057274
 TTTTTTTTTTTTTTTTTTTTTTTTTTTTTT MOQGAD      TELAPSE       23.61 TCPU       22.08
 TTTTTTTTTTTTTTTTTTTTTTTTTTTTTT SHELLXN     TELAPSE       24.32 TCPU       22.79
 TTTTTTTTTTTTTTTTTTTTTTTTTTTTTT MONMO3      TELAPSE       24.43 TCPU       22.89
 NUMERICALLY INTEGRATED DENSITY     89.9998152662
 TTTTTTTTTTTTTTTTTTTTTTTTTTTTTT NUMDFT      TELAPSE       24.68 TCPU       23.15
 CYC  15 ETOT(AU) -5.704069388297E+02 DETOT -9.64E-08 tst  3.23E-09 PX  7.93E-05
 TTTTTTTTTTTTTTTTTTTTTTTTTTTTTT DIIS        TELAPSE       24.71 TCPU       23.17
 DIIS TEST: 0.33328E-06 AT SCF   CYCLE  15 - DIIS ACTIVE - HISTORY:    15 CYCLES
 TTTTTTTTTTTTTTTTTTTTTTTTTTTTTT FDIK        TELAPSE       24.89 TCPU       23.36
 POSSIBLY CONDUCTING STATE - EFERMI(AU) -1.8657504E-01 (RES. CHARGE  3.20E-10;IT.  6)
 TTTTTTTTTTTTTTTTTTTTTTTTTTTTTT PDIG        TELAPSE       24.99 TCPU       23.45
 CHARGE NORMALIZATION FACTOR   1.00000000
 TOTAL ATOMIC CHARGES:
   5.9646374   5.9646856   6.0200799   6.0200057   5.9626906   6.0054463
   5.9626968   6.0011284   6.0009069   5.9937993   6.0291599   6.0292780
   6.0338641   6.0058103   6.0058108
 TTTTTTTTTTTTTTTTTTTTTTTTTTTTTT MOQGAD      TELAPSE       24.99 TCPU       23.45
 TTTTTTTTTTTTTTTTTTTTTTTTTTTTTT SHELLXN     TELAPSE       25.70 TCPU       24.16
 TTTTTTTTTTTTTTTTTTTTTTTTTTTTTT MONMO3      TELAPSE       25.81 TCPU       24.27
 NUMERICALLY INTEGRATED DENSITY     89.9998152703
 TTTTTTTTTTTTTTTTTTTTTTTTTTTTTT NUMDFT      TELAPSE       26.07 TCPU       24.53
 CYC  16 ETOT(AU) -5.704069389889E+02 DETOT -1.59E-07 tst  2.99E-10 PX  4.08E-05
 TTTTTTTTTTTTTTTTTTTTTTTTTTTTTT DIIS        TELAPSE       26.11 TCPU       24.57
 DIIS TEST: 0.75724E-07 AT SCF   CYCLE  16 - DIIS ACTIVE - HISTORY:    16 CYCLES
 TTTTTTTTTTTTTTTTTTTTTTTTTTTTTT FDIK        TELAPSE       26.29 TCPU       24.75
 POSSIBLY CONDUCTING STATE - EFERMI(AU) -1.8657653E-01 (RES. CHARGE  4.90E-13;IT.  6)
 TTTTTTTTTTTTTTTTTTTTTTTTTTTTTT PDIG        TELAPSE       26.39 TCPU       24.85
 CHARGE NORMALIZATION FACTOR   1.00000000
 TOTAL ATOMIC CHARGES:
   5.9646356   5.9646637   6.0200897   6.0199951   5.9627252   6.0053834
   5.9627039   6.0011555   6.0009918   5.9937504   6.0291703   6.0292406
   6.0338837   6.0058238   6.0057874
 TTTTTTTTTTTTTTTTTTTTTTTTTTTTTT MOQGAD      TELAPSE       26.39 TCPU       24.85
 TTTTTTTTTTTTTTTTTTTTTTTTTTTTTT SHELLXN     TELAPSE       27.10 TCPU       25.56
 TTTTTTTTTTTTTTTTTTTTTTTTTTTTTT MONMO3      TELAPSE       27.21 TCPU       25.66
 NUMERICALLY INTEGRATED DENSITY     89.9998152707
 TTTTTTTTTTTTTTTTTTTTTTTTTTTTTT NUMDFT      TELAPSE       27.59 TCPU       26.04
 CYC  17 ETOT(AU) -5.704069389966E+02 DETOT -7.79E-09 tst  4.19E-10 PX  1.89E-05
 TTTTTTTTTTTTTTTTTTTTTTTTTTTTTT DIIS        TELAPSE       27.63 TCPU       26.08
 DIIS TEST: 0.32448E-07 AT SCF   CYCLE  17 - DIIS ACTIVE - HISTORY:    17 CYCLES
 TTTTTTTTTTTTTTTTTTTTTTTTTTTTTT FDIK        TELAPSE       27.79 TCPU       26.24
 POSSIBLY CONDUCTING STATE - EFERMI(AU) -1.8657779E-01 (RES. CHARGE  1.28E-13;IT.  6)
 TTTTTTTTTTTTTTTTTTTTTTTTTTTTTT PDIG        TELAPSE       27.89 TCPU       26.34
 CHARGE NORMALIZATION FACTOR   1.00000000
 TOTAL ATOMIC CHARGES:
   5.9646259   5.9646655   6.0200802   6.0200034   5.9627163   6.0054250
   5.9627114   6.0011408   6.0010062   5.9937216   6.0291936   6.0292131
   6.0338766   6.0058172   6.0058032
 TTTTTTTTTTTTTTTTTTTTTTTTTTTTTT MOQGAD      TELAPSE       27.90 TCPU       26.34
 TTTTTTTTTTTTTTTTTTTTTTTTTTTTTT SHELLXN     TELAPSE       28.61 TCPU       27.05
 TTTTTTTTTTTTTTTTTTTTTTTTTTTTTT MONMO3      TELAPSE       28.71 TCPU       27.16
 NUMERICALLY INTEGRATED DENSITY     89.9998152714
 TTTTTTTTTTTTTTTTTTTTTTTTTTTTTT NUMDFT      TELAPSE       28.97 TCPU       27.42
 CYC  18 ETOT(AU) -5.704069390290E+02 DETOT -3.24E-08 tst  5.18E-11 PX  7.92E-06
 TTTTTTTTTTTTTTTTTTTTTTTTTTTTTT DIIS        TELAPSE       28.99 TCPU       27.44
 DIIS TEST: 0.11185E-07 AT SCF   CYCLE  18 - DIIS ACTIVE - HISTORY:    18 CYCLES
 TTTTTTTTTTTTTTTTTTTTTTTTTTTTTT FDIK        TELAPSE       29.18 TCPU       27.62
 POSSIBLY CONDUCTING STATE - EFERMI(AU) -1.8657909E-01 (RES. CHARGE  2.27E-13;IT.  6)
 TTTTTTTTTTTTTTTTTTTTTTTTTTTTTT PDIG        TELAPSE       29.27 TCPU       27.72
 CHARGE NORMALIZATION FACTOR   1.00000000
 TOTAL ATOMIC CHARGES:
   5.9646266   5.9646594   6.0200856   6.0199962   5.9627132   6.0054671
   5.9626988   6.0011307   6.0010103   5.9936949   6.0291978   6.0292129
   6.0338706   6.0058315   6.0058046
 TTTTTTTTTTTTTTTTTTTTTTTTTTTTTT MOQGAD      TELAPSE       29.28 TCPU       27.72
 TTTTTTTTTTTTTTTTTTTTTTTTTTTTTT SHELLXN     TELAPSE       29.99 TCPU       28.43
 TTTTTTTTTTTTTTTTTTTTTTTTTTTTTT MONMO3      TELAPSE       30.09 TCPU       28.54
 NUMERICALLY INTEGRATED DENSITY     89.9998152721
 TTTTTTTTTTTTTTTTTTTTTTTTTTTTTT NUMDFT      TELAPSE       30.35 TCPU       28.79
 CYC  19 ETOT(AU) -5.704069390606E+02 DETOT -3.16E-08 tst  3.41E-11 PX  9.43E-06
 TTTTTTTTTTTTTTTTTTTTTTTTTTTTTT DIIS        TELAPSE       30.37 TCPU       28.82
 DIIS TEST: 0.12755E-08 AT SCF   CYCLE  19 - DIIS ACTIVE - HISTORY:    19 CYCLES
 TTTTTTTTTTTTTTTTTTTTTTTTTTTTTT FDIK        TELAPSE       30.56 TCPU       29.00
 POSSIBLY CONDUCTING STATE - EFERMI(AU) -1.8657982E-01 (RES. CHARGE  4.33E-13;IT.  6)
 TTTTTTTTTTTTTTTTTTTTTTTTTTTTTT PDIG        TELAPSE       30.65 TCPU       29.10
 CHARGE NORMALIZATION FACTOR   1.00000000
 TOTAL ATOMIC CHARGES:
   5.9646236   5.9646562   6.0200800   6.0199979   5.9627111   6.0054760
   5.9626967   6.0011282   6.0010176   5.9936905   6.0292053   6.0292027
   6.0338708   6.0058352   6.0058080
 TTTTTTTTTTTTTTTTTTTTTTTTTTTTTT MOQGAD      TELAPSE       30.66 TCPU       29.10
 TTTTTTTTTTTTTTTTTTTTTTTTTTTTTT SHELLXN     TELAPSE       31.37 TCPU       29.81
 TTTTTTTTTTTTTTTTTTTTTTTTTTTTTT MONMO3      TELAPSE       31.48 TCPU       29.91
 NUMERICALLY INTEGRATED DENSITY     89.9998152725
 TTTTTTTTTTTTTTTTTTTTTTTTTTTTTT NUMDFT      TELAPSE       31.73 TCPU       30.17
 CYC  20 ETOT(AU) -5.704069390690E+02 DETOT -8.48E-09 tst  3.67E-12 PX  2.27E-06
 TTTTTTTTTTTTTTTTTTTTTTTTTTTTTT DIIS        TELAPSE       31.76 TCPU       30.20
 DIIS TEST: 0.17679E-09 AT SCF   CYCLE  20 - DIIS ACTIVE - HISTORY:    19 CYCLES
 TTTTTTTTTTTTTTTTTTTTTTTTTTTTTT FDIK        TELAPSE       31.94 TCPU       30.38
 POSSIBLY CONDUCTING STATE - EFERMI(AU) -1.8658004E-01 (RES. CHARGE  2.13E-14;IT.  6)
 TTTTTTTTTTTTTTTTTTTTTTTTTTTTTT PDIG        TELAPSE       32.04 TCPU       30.48
 CHARGE NORMALIZATION FACTOR   1.00000000
 TOTAL ATOMIC CHARGES:
   5.9646231   5.9646564   6.0200826   6.0199951   5.9627105   6.0054815
   5.9626966   6.0011244   6.0010195   5.9936892   6.0292059   6.0292016
   6.0338698   6.0058350   6.0058089
 TTTTTTTTTTTTTTTTTTTTTTTTTTTTTT MOQGAD      TELAPSE       32.04 TCPU       30.48
 TTTTTTTTTTTTTTTTTTTTTTTTTTTTTT SHELLXN     TELAPSE       32.75 TCPU       31.19
 TTTTTTTTTTTTTTTTTTTTTTTTTTTTTT MONMO3      TELAPSE       32.86 TCPU       31.29
 NUMERICALLY INTEGRATED DENSITY     89.9998152726
 TTTTTTTTTTTTTTTTTTTTTTTTTTTTTT NUMDFT      TELAPSE       33.12 TCPU       31.55
 CYC  21 ETOT(AU) -5.704069390724E+02 DETOT -3.39E-09 tst  3.67E-13 PX  1.09E-06
 TTTTTTTTTTTTTTTTTTTTTTTTTTTTTT DIIS        TELAPSE       33.14 TCPU       31.58
 DIIS TEST: 0.20607E-10 AT SCF   CYCLE  21 - DIIS ACTIVE - HISTORY:    20 CYCLES
 TTTTTTTTTTTTTTTTTTTTTTTTTTTTTT FDIK        TELAPSE       33.33 TCPU       31.76
 POSSIBLY CONDUCTING STATE - EFERMI(AU) -1.8658014E-01 (RES. CHARGE  2.89E-10;IT.  4)
 TTTTTTTTTTTTTTTTTTTTTTTTTTTTTT PDIG        TELAPSE       33.42 TCPU       31.86
 CHARGE NORMALIZATION FACTOR   1.00000000
 TOTAL ATOMIC CHARGES:
   5.9646233   5.9646563   6.0200818   6.0199959   5.9627105   6.0054850
   5.9626963   6.0011232   6.0010187   5.9936886   6.0292071   6.0292003
   6.0338690   6.0058353   6.0058088
 TTTTTTTTTTTTTTTTTTTTTTTTTTTTTT MOQGAD      TELAPSE       33.43 TCPU       31.86
 TTTTTTTTTTTTTTTTTTTTTTTTTTTTTT SHELLXN     TELAPSE       34.14 TCPU       32.57
 TTTTTTTTTTTTTTTTTTTTTTTTTTTTTT MONMO3      TELAPSE       34.24 TCPU       32.67
 NUMERICALLY INTEGRATED DENSITY     89.9998152727
 TTTTTTTTTTTTTTTTTTTTTTTTTTTTTT NUMDFT      TELAPSE       34.50 TCPU       32.93
 CYC  22 ETOT(AU) -5.704069390722E+02 DETOT  2.02E-10 tst  1.57E-13 PX  6.92E-07
 TTTTTTTTTTTTTTTTTTTTTTTTTTTTTT DIIS        TELAPSE       34.53 TCPU       32.96
 DIIS TEST: 0.17667E-11 AT SCF   CYCLE  22 - DIIS ACTIVE - HISTORY:    21 CYCLES
 TTTTTTTTTTTTTTTTTTTTTTTTTTTTTT FDIK        TELAPSE       34.71 TCPU       33.14
 POSSIBLY CONDUCTING STATE - EFERMI(AU) -1.8658008E-01 (RES. CHARGE  5.66E-11;IT.  4)
 TTTTTTTTTTTTTTTTTTTTTTTTTTTTTT PDIG        TELAPSE       34.81 TCPU       33.23
 CHARGE NORMALIZATION FACTOR   1.00000000
 TOTAL ATOMIC CHARGES:
   5.9646233   5.9646563   6.0200819   6.0199959   5.9627106   6.0054835
   5.9626964   6.0011235   6.0010189   5.9936890   6.0292071   6.0292005
   6.0338693   6.0058352   6.0058087
 TTTTTTTTTTTTTTTTTTTTTTTTTTTTTT MOQGAD      TELAPSE       34.81 TCPU       33.23
 TTTTTTTTTTTTTTTTTTTTTTTTTTTTTT SHELLXN     TELAPSE       35.51 TCPU       33.94
 +++ ENERGIES IN A.U. +++
 ::: EXT EL-POLE                                  -8.0036857633997E+02
 ::: EXT EL-SPHEROPOLE                             6.3246380898769E+00
 ::: BIELET ZONE E-E                               1.1891567426962E+03
 ::: TOTAL E-E                                     3.9511280444615E+02
 ::: TOTAL E-N + N-E                              -1.5691892964099E+03
 ::: TOTAL N-N                                     1.1707961245289E+02
 ::: KINETIC ENERGY                                5.6668288235788E+02
 ::: PSEUDO TOTAL   ENERGY                        -4.9031399715301E+02
 ::: VIRIAL COEFFICIENT                            1.0722508142505E+00
 TTTTTTTTTTTTTTTTTTTTTTTTTTTTTT MONMO3      TELAPSE       35.62 TCPU       34.05
 NUMERICALLY INTEGRATED DENSITY     89.9998152726
 TTTTTTTTTTTTTTTTTTTTTTTTTTTTTT NUMDFT      TELAPSE       35.87 TCPU       34.30
 CYC  23 ETOT(AU) -5.704069390727E+02 DETOT -5.32E-10 tst  1.31E-14 PX  6.92E-07

 == SCF ENDED - CONVERGENCE ON ENERGY      E(AU) -5.7040693907275E+02 CYCLES  23


 ENERGY EXPRESSION=HARTREE+FOCK EXCH*0.00000+(PBE        EXCH)*1.00000+PBE        CORR


 TOTAL ENERGY(DFT)(AU)( 23) -5.7040693907275E+02 DE-5.3E-10 tester 1.3E-14
 TTTTTTTTTTTTTTTTTTTTTTTTTTTTTT EDFT        TELAPSE       35.88 TCPU       34.30

 *******************************************************************************
 *                             FORCE CALCULATION                               *
 *******************************************************************************

 TTTTTTTTTTTTTTTTTTTTTTTTTTTTTT NUMDFG      TELAPSE       36.51 TCPU       34.94
 INFORMATION **** EXCPOG **** EXCH. BIPO BUFFER LENGTH (WORDS) =           0
 INFORMATION **** GENPOG **** BIPO BUFFER LENGTH (WORDS) =     1109000
 TTTTTTTTTTTTTTTTTTTTTTTTTTTTTT SHELXG      TELAPSE       38.95 TCPU       37.37

 CARTESIAN FORCES IN HARTREE/BOHR (ANALYTICAL)
   ATOM                     X                   Y                   Z
   1   6             7.351945636967E-03 -2.067498347147E-02 -9.650839498195E-09
   2   6             2.165831704433E-02  3.977213062692E-03 -8.518332876492E-09
   3   6            -7.039292511786E-02 -4.204618173670E-02  8.787582176475E-09
   4   6             1.262543876534E-03  8.188560545387E-02 -1.688688875159E-08
   5   6            -2.050757931091E-02 -4.160116252560E-02  5.187330490194E-09
   6   6             2.867473121303E-02 -1.655614350919E-02 -1.744440660722E-09
   7   6             2.581863791898E-02  3.853179157817E-02  7.043721989901E-09
   8   6             5.396746609286E-02 -3.664033810666E-02  2.351635231085E-09
   9   6             5.859929492430E-02 -2.837068689311E-02  1.184818401045E-08
  10   6            -1.264043581842E-02  7.187644431132E-03  1.186542279893E-08
  11   6             3.223161129125E-02  8.415670827235E-02 -3.341759697131E-09
  12   6            -5.685885368405E-02 -6.990952499284E-02  3.841984347801E-09
  13   6            -1.732559552169E-02  1.006739029140E-02 -1.746004620623E-08
  14   6            -2.781487422423E-03  5.513414482999E-02 -1.640417874356E-10
  15   6            -4.905767112307E-02 -2.514147668409E-02  6.840383805278E-09

 RESULTANT FORCE    -1.664224313913E-13 -6.396272400622E-14 -1.046276780475E-13

 SYMMETRY ALLOWED FORCES (ANALYTICAL) (DIRECTION, FORCE)

    1  2.2338492E-02    2 -4.1098787E-03    3 -9.9895607E-09    4  9.2632524E-03
    5  2.1234058E-02    6 -9.5552519E-09    7  3.5853984E-03    8 -8.3989798E-02
    9  7.6917159E-09   10 -7.0781932E-02   11  3.8229539E-02   12 -1.8454334E-08
   13  2.3208356E-02   14 -4.2652342E-02   15  2.9359269E-09   16  2.8716287E-02
   17  1.0943047E-02   18 -4.0609390E-09   19 -2.0010387E-02   20  3.8825998E-02
   21  4.7809862E-09   22  6.1952404E-02   23  2.9904102E-02   24  4.0507709E-10
   25  6.6302398E-02   26  4.3329083E-02   27  1.0725188E-08   28  5.6968525E-03
   29  3.1598204E-03   30  1.2709097E-08   31 -4.2463548E-02   32  9.0344161E-02
   33 -1.4367450E-09   34  4.7809625E-02   35 -6.1406835E-02   36  6.4402433E-09
   37  6.9937687E-03   38  4.0646313E-03   39 -1.6981673E-08   40 -3.2797476E-02
   41  5.6719977E-02   42 -4.9528768E-09
 TTTTTTTTTTTTTTTTTTTTTTTTTTTTTT TOTGRA      TELAPSE       39.38 TCPU       37.81
 INFORMATION **** opta001 **** GEOMETRY OUTPUT FILE
 CLASSICAL MODEL (SCHLEGEL) USED AS INITIAL HESSIAN MATRIX
 REFERENCE GEOMETRY DEFINED

 MAX GRADIENT      0.090344  THRESHOLD              0.000450 CONVERGED NO
 RMS GRADIENT      0.034925  THRESHOLD              0.000300 CONVERGED NO

 GRADIENT NORM     0.226340  GRADIENT THRESHOLD     0.500000

 EIGENVALUES OF THE ESTIMATED HESSIAN
  0.6833E-03  0.1659E-02  0.2099E-02  0.2735E-02  0.4702E-02  0.5943E-02
  0.7303E-02  0.1382E-01  0.2470E-01  0.2790E-01  0.2958E-01  0.4161E-01
  0.5187E-01  0.5507E-01  0.6102E-01  0.7960E-01  0.9484E-01  0.1124    
  0.1126      0.1388      0.1751      0.1855      0.2404      0.3050    
  0.3537      0.3997      0.4784      0.4937      0.5853      0.6233    
  0.6748      0.7525      0.9170      0.9326      0.9579       1.034    
   1.046       1.112       1.181       1.196       1.339       1.356    

 INITIAL TRUST RADIUS    0.5000000000E+00

 PREDICTED ENERGY CHANGE    -0.371E-01

 INITIAL DISPLACEMENTS
  0.050793  0.016107 -0.000000  0.043652  0.037659  0.000001 -0.022344 -0.071514
  0.000008 -0.075696  0.009578 -0.000004 -0.056336 -0.013429 -0.000001  0.075943
  0.046117 -0.000000 -0.037546 -0.038515 -0.000002  0.126354  0.022882  0.000006
  0.101004  0.101371  0.000000  0.033490  0.018917  0.000001 -0.108233  0.202034
  0.000003  0.096625 -0.149798 -0.000000 -0.109465 -0.063124 -0.000003 -0.027650
  0.047172  0.000000
 TTTTTTTTTTTTTTTTTTTTTTTTTTTTTT OPTI        TELAPSE       39.40 TCPU       37.82

 OPTOPTOPTOPTOPTOPTOPTOPTOPTOPTOPTOPTOPTOPTOPTOPTOPTOPTOPTOPTOPTOPTOPTOPTOPTOPT

 - INFORMATION ON SCF MOVED TO SCFOUT.LOG
 GEOMETRY OPTIMIZATION INFORMATION STORED IN OPTINFO.DAT

 OPTOPTOPTOPTOPTOPTOPTOPTOPTOPTOPTOPTOPTOPTOPTOPTOPTOPTOPTOPTOPTOPTOPTOPTOPTOPT
 *******************************************************************************
 COORDINATE OPTIMIZATION - POINT    2
 *******************************************************************************
 LATTICE PARAMETERS (ANGSTROMS AND DEGREES) - BOHR = 0.5291772083 ANGSTROM
 PRIMITIVE CELL - CENTRING CODE 1/0 VOLUME=   412.228566 - DENSITY  0.725 g/cm^3
         A              B              C           ALPHA      BETA       GAMMA 
     7.40317242     7.40317242     8.68503800    90.000000  90.000000 120.000000
 *******************************************************************************
 ATOMS IN THE ASYMMETRIC UNIT   15 - ATOMS IN THE UNIT CELL:   15
     ATOM                 X/A                 Y/B                 Z/C    
 *******************************************************************************
      1 T   6 C     1.152608510070E-01 -4.431600662588E-01  2.999999820235E-01
      2 T   6 C     1.153190465267E-01 -1.082076485295E-01  3.000000544463E-01
      3 T   6 C     4.394315409682E-01  2.162290597063E-01  3.000004714855E-01
      4 T   6 C     4.393638105688E-01 -4.435370967674E-01  2.999997145079E-01
      5 T   6 C    -2.264323488406E-01  2.212470070644E-01  2.999999472260E-01
      6 T   6 C    -2.146722905235E-01 -4.406460776537E-01  2.999999709495E-01
      7 T   6 C    -2.264293044639E-01 -1.143221216243E-01  2.999998889570E-01
      8 T   6 C     2.318793950818E-01  1.130384799347E-01  3.000003150822E-01
      9 T   6 C     2.317718610326E-01  4.520990906750E-01  2.999999738838E-01
     10 T   6 C     2.223528556679E-01 -2.221796177751E-01  3.000000037210E-01
     11 T   6 C    -4.472534927141E-01  1.243583392216E-01  3.000000914755E-01
     12 T   6 C    -4.472980818940E-01 -2.383262463450E-01  2.999998781156E-01
     13 T   6 C    -1.233173807055E-01  1.050297491691E-01  2.999997515068E-01
     14 T   6 C    -1.105648011032E-01  4.474972163746E-01  2.999999794636E-01
     15 T   6 C    -1.105227717189E-01 -2.246756227467E-01  2.999999771559E-01

 T = ATOM BELONGING TO THE ASYMMETRIC UNIT

 TOTAL ENERGY(DFT)(AU)( 18) -5.7045357479572E+02     DE (AU)   -4.664E-02

 UPDATED TRUST RADIUS     0.100E+01

 SYMMETRY ALLOWED FORCES  (COORDINATE, FORCE)

    1  1.8232029E-03    2 -1.0162774E-02    3 -2.0172355E-08    4 -7.8218573E-03
    5  5.9237740E-03    6  7.1010414E-08    7 -3.3529175E-03    8 -1.9324048E-02
    9 -1.9572103E-07   10 -1.8899165E-02   11  5.3140174E-03   12  2.0073595E-08
   13  1.5628057E-02   14 -2.7663040E-02   15  1.8342785E-08   16  7.5899384E-03
   17  7.0488594E-04   18  7.0070416E-08   19 -1.4071746E-02   20  2.4951852E-02
   21  9.6249666E-09   22 -7.0328619E-03   23 -2.6423578E-03   24  2.4877986E-08
   25 -6.6110902E-03   26 -5.1184837E-03   27 -4.8885319E-08   28 -3.7883828E-03
   29 -2.0724846E-03   30 -2.9588189E-08   31  9.4315941E-03   32  3.3747766E-02
   33  8.1505908E-08   34  3.7582859E-02   35 -2.1930664E-04   36 -1.1457469E-08
   37 -4.8626615E-03   38 -2.8636053E-03   39  3.1699657E-08   40 -9.3964656E-03
   41  1.6310111E-02   42  1.1086460E-08

 GRADIENT NORM     0.077670  GRADIENT THRESHOLD     0.500000

 EIGENVALUES OF THE ESTIMATED HESSIAN
  0.6833E-03  0.1659E-02  0.2099E-02  0.2735E-02  0.4702E-02  0.5943E-02
  0.7303E-02  0.1382E-01  0.2470E-01  0.2790E-01  0.2978E-01  0.4161E-01
  0.5187E-01  0.5507E-01  0.6102E-01  0.7960E-01  0.9484E-01  0.1120    
  0.1124      0.1410      0.1836      0.1855      0.2242      0.3050    
  0.3379      0.3997      0.4509      0.4784      0.6233      0.6402    
  0.6740      0.7525      0.8783      0.9235      0.9326       1.034    
   1.049       1.112       1.137       1.196       1.343       1.356    

 PREDICTED ENERGY CHANGE    -0.794E-02

 MAX GRADIENT      0.037583  THRESHOLD              0.000450 CONVERGED NO
 RMS GRADIENT      0.011985  THRESHOLD              0.000300 CONVERGED NO
 MAX DISPLAC.      0.126233  THRESHOLD              0.001800 CONVERGED NO
 RMS DISPLAC.      0.039659  THRESHOLD              0.001200 CONVERGED NO
 TTTTTTTTTTTTTTTTTTTTTTTTTTTTTT OPTI        TELAPSE       69.78 TCPU       68.05
 *******************************************************************************
 COORDINATE OPTIMIZATION - POINT    3
 *******************************************************************************
 LATTICE PARAMETERS (ANGSTROMS AND DEGREES) - BOHR = 0.5291772083 ANGSTROM
 PRIMITIVE CELL - CENTRING CODE 1/0 VOLUME=   412.228566 - DENSITY  0.725 g/cm^3
         A              B              C           ALPHA      BETA       GAMMA 
     7.40317242     7.40317242     8.68503800    90.000000  90.000000 120.000000
 *******************************************************************************
 ATOMS IN THE ASYMMETRIC UNIT   15 - ATOMS IN THE UNIT CELL:   15
     ATOM                 X/A                 Y/B                 Z/C    
 *******************************************************************************
      1 T   6 C     1.129513790262E-01 -4.443380900783E-01  3.000006000852E-01
      2 T   6 C     1.129179697032E-01 -1.094013761852E-01  2.999998702859E-01
      3 T   6 C     4.339080867866E-01  2.097336240193E-01  2.999925256111E-01
      4 T   6 C     4.339612588592E-01 -4.424225734585E-01  3.000010370070E-01
      5 T   6 C    -2.225906112948E-01  2.214112126260E-01  3.000007753356E-01
      6 T   6 C    -2.131966740647E-01 -4.399486651576E-01  3.000019686421E-01
      7 T   6 C    -2.226210524144E-01 -1.106818814751E-01  3.000015695231E-01
      8 T   6 C     2.289142079140E-01  1.095335620960E-01  2.999959359137E-01
      9 T   6 C     2.289797203020E-01  4.527177536097E-01  3.000005558752E-01
     10 T   6 C     2.196417859893E-01 -2.235145990255E-01  3.000005052126E-01
     11 T   6 C    -4.387280360000E-01  1.351717658797E-01  2.999994419044E-01
     12 T   6 C    -4.387418628520E-01 -2.405327961266E-01  3.000013723349E-01
     13 T   6 C    -1.237372461226E-01  1.047884107253E-01  3.000017482523E-01
     14 T   6 C    -1.113709457919E-01  4.485769497545E-01  3.000007681932E-01
     15 T   6 C    -1.113990911506E-01 -2.266488527585E-01  3.000013258237E-01

 T = ATOM BELONGING TO THE ASYMMETRIC UNIT

 TOTAL ENERGY(DFT)(AU)( 17) -5.7046344871199E+02     DE (AU)   -9.874E-03

 UPDATED TRUST RADIUS     0.200E+01

 SYMMETRY ALLOWED FORCES  (COORDINATE, FORCE)

    1 -1.0066861E-03    2 -6.5283258E-04    3  2.6330099E-08    4 -1.1773232E-03
    5 -4.2063139E-04    6 -4.8350593E-07    7  7.7617330E-03    8 -7.3661111E-03
    9  3.3774152E-06   10 -2.2036014E-03   11  9.2373276E-03   12  1.0045848E-06
   13  5.8747240E-04   14 -7.2296922E-03   15  3.6791316E-07   16 -2.2107666E-03
   17 -1.7621224E-03   18 -3.2108999E-07   19 -6.4764358E-03   20  2.9328112E-03
   21  8.5232071E-07   22 -1.0011532E-02   23 -1.6867608E-03   24  2.9507939E-07
   25 -7.5581763E-03   26 -7.8876833E-03   27  1.3302348E-06   28 -2.9964995E-04
   29 -3.2457426E-04   30  6.6190007E-07   31 -3.6068670E-03   32  1.0933231E-02
   33 -1.8286712E-06   34  7.4518128E-03   35 -5.3077680E-03   36 -4.3752785E-07
   37  1.6560993E-03   38  1.1884215E-03   39 -1.2362606E-06   40 -7.0934673E-05
   41  4.5075055E-04   42  2.3685510E-07

 GRADIENT NORM     0.027606  GRADIENT THRESHOLD     0.500000

 EIGENVALUES OF THE ESTIMATED HESSIAN
  0.6833E-03  0.1659E-02  0.2099E-02  0.2735E-02  0.4702E-02  0.5943E-02
  0.7303E-02  0.1382E-01  0.2470E-01  0.2790E-01  0.2971E-01  0.4161E-01
  0.5187E-01  0.5506E-01  0.6102E-01  0.7960E-01  0.9484E-01  0.9700E-01
  0.1124      0.1405      0.1772      0.1855      0.2315      0.3040    
  0.3050      0.3997      0.4250      0.4784      0.6233      0.6324    
  0.6753      0.7526      0.8570      0.9326      0.9747       1.034    
   1.053       1.112       1.145       1.196       1.345       1.356    

 PREDICTED ENERGY CHANGE    -0.126E-02

 MAX GRADIENT      0.010933  THRESHOLD              0.000450 CONVERGED NO
 RMS GRADIENT      0.004260  THRESHOLD              0.000300 CONVERGED NO
 MAX DISPLAC.      0.060299  THRESHOLD              0.001800 CONVERGED NO
 RMS DISPLAC.      0.020532  THRESHOLD              0.001200 CONVERGED NO
 TTTTTTTTTTTTTTTTTTTTTTTTTTTTTT OPTI        TELAPSE       99.19 TCPU       97.25
 *******************************************************************************
 COORDINATE OPTIMIZATION - POINT    4
 *******************************************************************************
 LATTICE PARAMETERS (ANGSTROMS AND DEGREES) - BOHR = 0.5291772083 ANGSTROM
[...]
   8 C    1     2.4612     4.6511   10 C    0-1 0
   8 C    1     2.5531     4.8247   15 C   -1-1 0
   8 C    1     2.6140     4.9397    9 C    0 0 0

   9 C    1     1.3279     2.5095    4 C    0 0 0
   9 C    1     1.4068     2.6584    1 C    0 0 0
   9 C    1     2.4593     4.6475   14 C   -1 0 0
   9 C    1     2.4889     4.7034   10 C    0 0 0
   9 C    1     2.5017     4.7275   12 C    0 0 0
   9 C    1     2.6140     4.9397    8 C    0 0 0

  10 C    1     1.4177     2.6790    2 C    0 0 0
  10 C    1     1.4500     2.7401    1 C    0 0 0
  10 C    1     2.4086     4.5516   15 C   -1 0 0
  10 C    1     2.4612     4.6511    8 C    0 1 0
  10 C    1     2.4833     4.6928   11 C    0 1 0
  10 C    1     2.4889     4.7034    9 C    0 0 0

  11 C    1     1.3297     2.5128    3 C    0 0 0
  11 C    1     1.4125     2.6693    5 C    0 0 0
  11 C    1     2.3640     4.4674    8 C    0 0 0
  11 C    1     2.4247     4.5819   14 C    0 0 0
  11 C    1     2.4476     4.6252   13 C    0 0 0
  11 C    1     2.4833     4.6928   10 C    0-1 0

  12 C    1     1.2591     2.3794    4 C    0 0 0
  12 C    1     1.3798     2.6075    7 C    0 0 0
  12 C    1     2.3129     4.3707   15 C    0 0 0
  12 C    1     2.4731     4.6735   13 C    0 1 0
  12 C    1     2.5017     4.7275    9 C    0 0 0
  12 C    1     2.6085     4.9294    6 C    0 0 0

  13 C    1     1.3739     2.5964    5 C    0 0 0
  13 C    1     1.3941     2.6345    7 C    0-1 0
  13 C    1     2.4476     4.6252   11 C    0 0 0
  13 C    1     2.4731     4.6735   12 C    0-1 0
  13 C    1     2.5251     4.7718   14 C    0 0 0
  13 C    1     2.5284     4.7779   15 C    0-1 0

  14 C    1     1.3673     2.5839    6 C    0 0 0
  14 C    1     1.4488     2.7379    1 C    1 0 0
  14 C    1     1.4900     2.8157    5 C    0 0 0
  14 C    1     2.4162     4.5660   15 C    0 0 0
  14 C    1     2.4247     4.5819   11 C    0 0 0
  14 C    1     2.4593     4.6475    9 C    1 0 0

  15 C    1     1.4019     2.6492    6 C    0 0 0
  15 C    1     1.4382     2.7178    2 C    1 0 0
  15 C    1     1.4597     2.7585    7 C    0 0 0
  15 C    1     2.3129     4.3707   12 C    0 0 0
  15 C    1     2.4086     4.5516   10 C    1 0 0
  15 C    1     2.4162     4.5660   14 C    0 0 0


 FINAL OPTIMIZED GEOMETRY - DIMENSIONALITY OF THE SYSTEM      3
 (NON PERIODIC DIRECTION: LATTICE PARAMETER FORMALLY SET TO 500)
 *******************************************************************************
 LATTICE PARAMETERS (ANGSTROMS AND DEGREES) - BOHR = 0.5291772083 ANGSTROM
 PRIMITIVE CELL - CENTRING CODE 1/0 VOLUME=   412.228566 - DENSITY  0.725 g/cm^3
         A              B              C           ALPHA      BETA       GAMMA 
     7.40317242     7.40317242     8.68503800    90.000000  90.000000 120.000000
 *******************************************************************************
 ATOMS IN THE ASYMMETRIC UNIT   15 - ATOMS IN THE UNIT CELL:   15
     ATOM                 X/A                 Y/B                 Z/C    
 *******************************************************************************
      1 T   6 C     1.119995551710E-01 -4.396498675923E-01  2.906492058259E-01
      2 T   6 C     1.172710927122E-01 -1.004464448274E-01  2.683156765762E-01
      3 T   6 C     4.420631464391E-01  2.173467490472E-01  2.628315679001E-01
      4 T   6 C     4.144672945816E-01 -4.316691998596E-01  3.812290355650E-01
      5 T   6 C    -2.278112467270E-01  2.136391714876E-01  2.871080249070E-01
      6 T   6 C    -2.142641876783E-01 -4.420260536759E-01  2.716433945155E-01
      7 T   6 C    -2.160525992511E-01 -1.166084700547E-01  3.324858559425E-01
      8 T   6 C     2.357664229464E-01  1.230809628640E-01  2.659309769074E-01
      9 T   6 C     2.158197776700E-01  4.550146034742E-01  3.396076255527E-01
     10 T   6 C     2.234173920560E-01 -2.153555344889E-01  2.692255722282E-01
     11 T   6 C    -4.447439803760E-01  1.234376036829E-01  2.633479679847E-01
     12 T   6 C    -4.144767035594E-01 -2.626176750867E-01  3.793277133745E-01
     13 T   6 C    -1.352986054103E-01  9.836451484004E-02  3.245707371415E-01
     14 T   6 C    -1.135541143135E-01  4.458601589105E-01  2.805375087420E-01
     15 T   6 C    -1.057143553710E-01 -2.239260742758E-01  2.831891368367E-01

 T = ATOM BELONGING TO THE ASYMMETRIC UNIT
 INFORMATION **** fort.34 **** GEOMETRY OUTPUT FILE

 DIRECT LATTICE VECTORS CARTESIAN COMPONENTS (ANGSTROM)
          X                    Y                    Z
   0.370158621205E+01  -0.641133538787E+01   0.000000000000E+00
   0.370158621205E+01   0.641133538787E+01   0.000000000000E+00
   0.000000000000E+00   0.000000000000E+00   0.868503800000E+01


 CARTESIAN COORDINATES - PRIMITIVE CELL
 *******************************************************************************
 *      ATOM          X(ANGSTROM)         Y(ANGSTROM)         Z(ANGSTROM)
 *******************************************************************************
    1     6 C     2.488760333217E+00  2.874525922008E+00  2.524299397268E+00
    2     6 C     3.763864096682E+00  5.015475234879E+00  2.330331847060E+00
    3     6 C     2.440862577221E+00 -1.440732190832E+00  2.282702154812E+00
    4     6 C     3.637911876651E+00  9.864705380907E-01  3.310988660585E+00
    5     6 C     3.649127053747E+00 -3.581048699578E+00  2.493544106422E+00
    6     6 C     4.973857515599E+00 -1.460257711477E+00  2.359233203816E+00
    7     6 C     6.171798796670E+00  6.375696646326E-01  2.887652293323E+00
    8     6 C     1.328304535546E+00 -7.224642779247E-01  2.309620639818E+00
    9     6 C     2.483151295812E+00  1.533558251273E+00  2.949505133015E+00
   10     6 C     3.731427872863E+00  3.598214996671E+00  2.338234325374E+00
   11     6 C     2.512242958238E+00 -2.768532691255E+00  2.287187109170E+00
   12     6 C     4.896849207846E+00  9.736191632140E-01  3.294475605111E+00
   13     6 C     3.564871491640E+00 -4.913242756166E+00  2.818909185762E+00
   14     6 C     4.931645684910E+00 -2.824742861467E+00  2.436478923850E+00
   15     6 C     6.182979954783E+00 -7.578949766746E-01  2.459508414614E+00

 ****    1 SYMMOPS - TRANSLATORS IN FRACTIONAL UNITS
 **** MATRICES AND TRANSLATORS IN THE CRYSTALLOGRAPHIC REFERENCE FRAME
   V INV                    ROTATION MATRICES                   TRANSLATORS
   1   1  1.00  0.00  0.00  0.00  1.00  0.00  0.00  0.00  1.00  0.00  0.00  0.00
 TTTTTTTTTTTTTTTTTTTTTTTTTTTTTT END         TELAPSE     1664.38 TCPU     1651.62
 EEEEEEEEEE TERMINATION  DATE 01 11 2022 TIME 00:25:10.6
NODE    0 CPU TIME =      1651.624
    TOTAL CPU TIME =    212094.896
Note: The following floating-point exceptions are signalling: IEEE_UNDERFLOW_FLAG IEEE_DENORMAL
Note: The following floating-point exceptions are signalling: IEEE_UNDERFLOW_FLAG IEEE_DENORMAL
Note: The following floating-point exceptions are signalling: IEEE_UNDERFLOW_FLAG IEEE_DENORMAL
Note: The following floating-point exceptions are signalling: IEEE_UNDERFLOW_FLAG IEEE_DENORMAL
Note: The following floating-point exceptions are signalling: IEEE_UNDERFLOW_FLAG IEEE_DENORMAL
Note: The following floating-point exceptions are signalling: IEEE_UNDERFLOW_FLAG IEEE_DENORMAL
Note: The following floating-point exceptions are signalling: IEEE_UNDERFLOW_FLAG IEEE_DENORMAL
Note: The following floating-point exceptions are signalling: IEEE_UNDERFLOW_FLAG IEEE_DENORMAL
Note: The following floating-point exceptions are signalling: IEEE_UNDERFLOW_FLAG IEEE_DENORMAL
Note: The following floating-point exceptions are signalling: IEEE_UNDERFLOW_FLAG IEEE_DENORMAL
Note: The following floating-point exceptions are signalling: IEEE_UNDERFLOW_FLAG IEEE_DENORMAL
Note: The following floating-point exceptions are signalling: IEEE_UNDERFLOW_FLAG IEEE_DENORMAL
Note: The following floating-point exceptions are signalling: IEEE_UNDERFLOW_FLAG IEEE_DENORMAL
Note: The following floating-point exceptions are signalling: IEEE_UNDERFLOW_FLAG IEEE_DENORMAL
Note: The following floating-point exceptions are signalling: IEEE_UNDERFLOW_FLAG IEEE_DENORMAL
Note: The following floating-point exceptions are signalling: IEEE_UNDERFLOW_FLAG IEEE_DENORMAL
Note: The following floating-point exceptions are signalling: IEEE_UNDERFLOW_FLAG IEEE_DENORMAL
Note: The following floating-point exceptions are signalling: IEEE_UNDERFLOW_FLAG IEEE_DENORMAL
Note: The following floating-point exceptions are signalling: IEEE_UNDERFLOW_FLAG IEEE_DENORMAL
Note: The following floating-point exceptions are signalling: IEEE_UNDERFLOW_FLAG IEEE_DENORMAL
Note: The following floating-point exceptions are signalling: IEEE_UNDERFLOW_FLAG IEEE_DENORMAL
Note: The following floating-point exceptions are signalling: IEEE_UNDERFLOW_FLAG IEEE_DENORMAL
Note: The following floating-point exceptions are signalling: IEEE_UNDERFLOW_FLAG IEEE_DENORMAL
Note: The following floating-point exceptions are signalling: IEEE_UNDERFLOW_FLAG IEEE_DENORMAL
Note: The following floating-point exceptions are signalling: IEEE_UNDERFLOW_FLAG IEEE_DENORMAL
Note: The following floating-point exceptions are signalling: IEEE_UNDERFLOW_FLAG IEEE_DENORMAL
Note: The following floating-point exceptions are signalling: IEEE_UNDERFLOW_FLAG IEEE_DENORMAL
Note: The following floating-point exceptions are signalling: IEEE_UNDERFLOW_FLAG IEEE_DENORMAL
Note: The following floating-point exceptions are signalling: IEEE_UNDERFLOW_FLAG IEEE_DENORMAL
Note: The following floating-point exceptions are signalling: IEEE_UNDERFLOW_FLAG IEEE_DENORMAL
Note: The following floating-point exceptions are signalling: IEEE_UNDERFLOW_FLAG IEEE_DENORMAL
Note: The following floating-point exceptions are signalling: IEEE_UNDERFLOW_FLAG IEEE_DENORMAL
Note: The following floating-point exceptions are signalling: IEEE_UNDERFLOW_FLAG IEEE_DENORMAL
Note: The following floating-point exceptions are signalling: IEEE_UNDERFLOW_FLAG IEEE_DENORMAL
Note: The following floating-point exceptions are signalling: IEEE_UNDERFLOW_FLAG IEEE_DENORMAL
Note: The following floating-point exceptions are signalling: IEEE_UNDERFLOW_FLAG IEEE_DENORMAL
Note: The following floating-point exceptions are signalling: IEEE_UNDERFLOW_FLAG IEEE_DENORMAL
Note: The following floating-point exceptions are signalling: IEEE_UNDERFLOW_FLAG IEEE_DENORMAL
Note: The following floating-point exceptions are signalling: IEEE_UNDERFLOW_FLAG IEEE_DENORMAL
Note: The following floating-point exceptions are signalling: IEEE_UNDERFLOW_FLAG IEEE_DENORMAL
Note: The following floating-point exceptions are signalling: IEEE_UNDERFLOW_FLAG IEEE_DENORMAL
Note: The following floating-point exceptions are signalling: IEEE_UNDERFLOW_FLAG IEEE_DENORMAL
Note: The following floating-point exceptions are signalling: IEEE_UNDERFLOW_FLAG IEEE_DENORMAL
Note: The following floating-point exceptions are signalling: IEEE_UNDERFLOW_FLAG IEEE_DENORMAL
Note: The following floating-point exceptions are signalling: IEEE_UNDERFLOW_FLAG IEEE_DENORMAL
Note: The following floating-point exceptions are signalling: IEEE_UNDERFLOW_FLAG IEEE_DENORMAL
Note: The following floating-point exceptions are signalling: IEEE_UNDERFLOW_FLAG IEEE_DENORMAL
Note: The following floating-point exceptions are signalling: IEEE_UNDERFLOW_FLAG IEEE_DENORMAL
Note: The following floating-point exceptions are signalling: IEEE_UNDERFLOW_FLAG IEEE_DENORMAL
Note: The following floating-point exceptions are signalling: IEEE_UNDERFLOW_FLAG IEEE_DENORMAL
Note: The following floating-point exceptions are signalling: IEEE_UNDERFLOW_FLAG IEEE_DENORMAL
Note: The following floating-point exceptions are signalling: IEEE_UNDERFLOW_FLAG IEEE_DENORMAL
Note: The following floating-point exceptions are signalling: IEEE_UNDERFLOW_FLAG IEEE_DENORMAL
Note: The following floating-point exceptions are signalling: IEEE_UNDERFLOW_FLAG IEEE_DENORMAL
Note: The following floating-point exceptions are signalling: IEEE_UNDERFLOW_FLAG IEEE_DENORMAL
Note: The following floating-point exceptions are signalling: IEEE_UNDERFLOW_FLAG IEEE_DENORMAL
Note: The following floating-point exceptions are signalling: IEEE_UNDERFLOW_FLAG IEEE_DENORMAL
Note: The following floating-point exceptions are signalling: IEEE_UNDERFLOW_FLAG IEEE_DENORMAL
Note: The following floating-point exceptions are signalling: IEEE_UNDERFLOW_FLAG IEEE_DENORMAL
Note: The following floating-point exceptions are signalling: IEEE_UNDERFLOW_FLAG IEEE_DENORMAL
Note: The following floating-point exceptions are signalling: IEEE_UNDERFLOW_FLAG IEEE_DENORMAL
Note: The following floating-point exceptions are signalling: IEEE_UNDERFLOW_FLAG IEEE_DENORMAL
Note: The following floating-point exceptions are signalling: IEEE_UNDERFLOW_FLAG IEEE_DENORMAL
Note: The following floating-point exceptions are signalling: IEEE_UNDERFLOW_FLAG IEEE_DENORMAL
Note: The following floating-point exceptions are signalling: IEEE_UNDERFLOW_FLAG IEEE_DENORMAL
Note: The following floating-point exceptions are signalling: IEEE_UNDERFLOW_FLAG IEEE_DENORMAL
Note: The following floating-point exceptions are signalling: IEEE_UNDERFLOW_FLAG IEEE_DENORMAL
Note: The following floating-point exceptions are signalling: IEEE_UNDERFLOW_FLAG IEEE_DENORMAL
Note: The following floating-point exceptions are signalling: IEEE_UNDERFLOW_FLAG IEEE_DENORMAL
Note: The following floating-point exceptions are signalling: IEEE_UNDERFLOW_FLAG IEEE_DENORMAL
Note: The following floating-point exceptions are signalling: IEEE_UNDERFLOW_FLAG IEEE_DENORMAL
Note: The following floating-point exceptions are signalling: IEEE_UNDERFLOW_FLAG IEEE_DENORMAL
Note: The following floating-point exceptions are signalling: IEEE_UNDERFLOW_FLAG IEEE_DENORMAL
Note: The following floating-point exceptions are signalling: IEEE_UNDERFLOW_FLAG IEEE_DENORMAL
Note: The following floating-point exceptions are signalling: IEEE_UNDERFLOW_FLAG IEEE_DENORMAL
Note: The following floating-point exceptions are signalling: IEEE_UNDERFLOW_FLAG IEEE_DENORMAL
Note: The following floating-point exceptions are signalling: IEEE_UNDERFLOW_FLAG IEEE_DENORMAL
Note: The following floating-point exceptions are signalling: IEEE_UNDERFLOW_FLAG IEEE_DENORMAL
Note: The following floating-point exceptions are signalling: IEEE_UNDERFLOW_FLAG IEEE_DENORMAL
Note: The following floating-point exceptions are signalling: IEEE_UNDERFLOW_FLAG IEEE_DENORMAL
Note: The following floating-point exceptions are signalling: IEEE_UNDERFLOW_FLAG IEEE_DENORMAL
Note: The following floating-point exceptions are signalling: IEEE_UNDERFLOW_FLAG IEEE_DENORMAL
Note: The following floating-point exceptions are signalling: IEEE_UNDERFLOW_FLAG IEEE_DENORMAL
Note: The following floating-point exceptions are signalling: IEEE_UNDERFLOW_FLAG IEEE_DENORMAL
Note: The following floating-point exceptions are signalling: IEEE_UNDERFLOW_FLAG IEEE_DENORMAL
Note: The following floating-point exceptions are signalling: IEEE_UNDERFLOW_FLAG IEEE_DENORMAL
Note: The following floating-point exceptions are signalling: IEEE_UNDERFLOW_FLAG IEEE_DENORMAL
Note: The following floating-point exceptions are signalling: IEEE_UNDERFLOW_FLAG IEEE_DENORMAL
Note: The following floating-point exceptions are signalling: IEEE_UNDERFLOW_FLAG IEEE_DENORMAL
Note: The following floating-point exceptions are signalling: IEEE_UNDERFLOW_FLAG IEEE_DENORMAL
Note: The following floating-point exceptions are signalling: IEEE_UNDERFLOW_FLAG IEEE_DENORMAL
Note: The following floating-point exceptions are signalling: IEEE_UNDERFLOW_FLAG IEEE_DENORMAL
Note: The following floating-point exceptions are signalling: IEEE_UNDERFLOW_FLAG IEEE_DENORMAL
Note: The following floating-point exceptions are signalling: IEEE_UNDERFLOW_FLAG IEEE_DENORMAL
Note: The following floating-point exceptions are signalling: IEEE_UNDERFLOW_FLAG IEEE_DENORMAL
Note: The following floating-point exceptions are signalling: IEEE_UNDERFLOW_FLAG IEEE_DENORMAL
Note: The following floating-point exceptions are signalling: IEEE_UNDERFLOW_FLAG IEEE_DENORMAL
Note: The following floating-point exceptions are signalling: IEEE_UNDERFLOW_FLAG IEEE_DENORMAL
Note: The following floating-point exceptions are signalling: IEEE_UNDERFLOW_FLAG IEEE_DENORMAL
Note: The following floating-point exceptions are signalling: IEEE_UNDERFLOW_FLAG IEEE_DENORMAL
Note: The following floating-point exceptions are signalling: IEEE_UNDERFLOW_FLAG IEEE_DENORMAL
Note: The following floating-point exceptions are signalling: IEEE_UNDERFLOW_FLAG IEEE_DENORMAL
Note: The following floating-point exceptions are signalling: IEEE_UNDERFLOW_FLAG IEEE_DENORMAL
Note: The following floating-point exceptions are signalling: IEEE_UNDERFLOW_FLAG IEEE_DENORMAL
Note: The following floating-point exceptions are signalling: IEEE_UNDERFLOW_FLAG IEEE_DENORMAL
Note: The following floating-point exceptions are signalling: IEEE_UNDERFLOW_FLAG IEEE_DENORMAL
Note: The following floating-point exceptions are signalling: IEEE_UNDERFLOW_FLAG IEEE_DENORMAL
Note: The following floating-point exceptions are signalling: IEEE_UNDERFLOW_FLAG IEEE_DENORMAL
Note: The following floating-point exceptions are signalling: IEEE_UNDERFLOW_FLAG IEEE_DENORMAL
Note: The following floating-point exceptions are signalling: IEEE_UNDERFLOW_FLAG IEEE_DENORMAL
Note: The following floating-point exceptions are signalling: IEEE_UNDERFLOW_FLAG IEEE_DENORMAL
Note: The following floating-point exceptions are signalling: IEEE_UNDERFLOW_FLAG IEEE_DENORMAL
Note: The following floating-point exceptions are signalling: IEEE_UNDERFLOW_FLAG IEEE_DENORMAL
Note: The following floating-point exceptions are signalling: IEEE_UNDERFLOW_FLAG IEEE_DENORMAL
Note: The following floating-point exceptions are signalling: IEEE_UNDERFLOW_FLAG IEEE_DENORMAL
Note: The following floating-point exceptions are signalling: IEEE_UNDERFLOW_FLAG IEEE_DENORMAL
Note: The following floating-point exceptions are signalling: IEEE_UNDERFLOW_FLAG IEEE_DENORMAL
Note: The following floating-point exceptions are signalling: IEEE_UNDERFLOW_FLAG IEEE_DENORMAL
Note: The following floating-point exceptions are signalling: IEEE_UNDERFLOW_FLAG IEEE_DENORMAL
Note: The following floating-point exceptions are signalling: IEEE_UNDERFLOW_FLAG IEEE_DENORMAL
Note: The following floating-point exceptions are signalling: IEEE_UNDERFLOW_FLAG IEEE_DENORMAL
Note: The following floating-point exceptions are signalling: IEEE_UNDERFLOW_FLAG IEEE_DENORMAL
Note: The following floating-point exceptions are signalling: IEEE_UNDERFLOW_FLAG IEEE_DENORMAL
Note: The following floating-point exceptions are signalling: IEEE_UNDERFLOW_FLAG IEEE_DENORMAL
Note: The following floating-point exceptions are signalling: IEEE_UNDERFLOW_FLAG IEEE_DENORMAL
Note: The following floating-point exceptions are signalling: IEEE_UNDERFLOW_FLAG IEEE_DENORMAL
Note: The following floating-point exceptions are signalling: IEEE_UNDERFLOW_FLAG IEEE_DENORMAL
Note: The following floating-point exceptions are signalling: IEEE_UNDERFLOW_FLAG IEEE_DENORMAL
end_date Tue Nov  1 00:25:10 GMT 2022
 
TEMPORARY          SAVED (in /mnt/lustre/a2fs-work2/work/e05/e05/bcamino/quantum_computing/test_model/optgeom)
fort.34            graphene_3v_M.gui 1492     Nov 1 00:25
fort.33            graphene_3v_M.xyz 73181    Nov 1 00:25
fort.9             graphene_3v_M.f9  1537120  Nov 1 00:25
fort.98            graphene_3v_M.f98 4000505  Nov 1 00:25
SCFOUT.LOG         graphene_3v_M.SCFLOG1461796  Nov 1 00:25
OPTINFO.DAT        graphene_3v_M.OPTINFO11906031 Nov 1 00:25
HESSOPT.DAT        graphene_3v_M.HESSOPT37485    Nov 1 00:25
opta001            opta002            
Disk usage:<du -m>
426	/mnt/lustre/a2fs-work2/work/e05/e05/bcamino/quantum_computing/test_model/optgeom/tmp_graphene_3v_M_
</du -m>
Filesystem                                          1K-blocks          Used     Available Use% Mounted on
10.253.102.2@o2ib1:10.253.102.3@o2ib1:/cls01097 3582178503216 1816226924652 1729730974548  52% /mnt/lustre/a2fs-work2
10.253.102.2@o2ib1:10.253.102.3@o2ib1:/cls01097 3582178503216 1816226924652 1729730974548  52% /mnt/lustre/a2fs-work2
