date:                Mon Oct 31 20:07:55 GMT 2022
hostname:            nid005741
system:              Linux nid005741 4.12.14-197.78_9.1.64-cray_shasta_c #1 SMP Wed Aug 25 14:56:40 UTC 2021 (4e2a900) x86_64 x86_64 x86_64 GNU/Linux
user:                bcamino
input:               /mnt/lustre/a2fs-work2/work/e05/e05/bcamino/quantum_computing/test_model/optgeom/graphene_3v_E.d12
output:              /mnt/lustre/a2fs-work2/work/e05/e05/bcamino/quantum_computing/test_model/optgeom/graphene_3v_E.out
executable script:   /work/e05/e05/bcamino/runCRYSTAL/Pcry_slurm
executable:          Pcrystal
Command:             srun --hint=nomultithread --distribution=block:block Pcrystal
Slurm JobID:         
temporary directory: /mnt/lustre/a2fs-work2/work/e05/e05/bcamino/quantum_computing/test_model/optgeom/tmp_graphene_3v_E_      
input data /mnt/lustre/a2fs-work2/work/e05/e05/bcamino/quantum_computing/test_model/optgeom/graphene_3v_E.d12
Final
EXTERNAL
SYMMREMO
OPTGEOM
ATOMONLY
END
END
6 8
0 0 6 2.0 1.0
  13575.349682      0.00022245814352
  2035.2333680      0.00172327382520
  463.22562359      0.00892557153140
  131.20019598      0.03572798450200
  42.853015891      0.11076259931000
  15.584185766      0.24295627626000
0 0 2 2.0 1.0
  6.2067138508      0.41440263448000
  2.5764896527      0.23744968655000
0 0 1 0.0 1.0
  0.4941102000      1.00000000000000
0 0 1 0.0 1.0
  0.1644071000      1.00000000000000
0 2 4 2.0 1.0
  34.697232244      0.00533336578050
  7.9582622826      0.03586410909200
  2.3780826883      0.14215873329000
  0.8143320818      0.34270471845000
0 2 1 0.0 1.0
  0.5662417100      1.00000000000000
0 2 1 0.0 1.0
  0.1973545000      1.00000000000000
0 3 1 0.0 1.0
  0.5791584200      1.00000000000000
99 0
ENDBS
DFT
PBE  
ENDDFT
TOLINTEG
8 8 8 8 16
SCFDIR
SHRINK
8 16  
MAXCYCLE
200
TOLDEE
9 
ENDSCF
input data /mnt/lustre/a2fs-work2/work/e05/e05/bcamino/quantum_computing/test_model/optgeom/graphene_3v_E.gui
         128 PROCESSORS WORKING

         
 *******************************************************************************
 *                                                                             *
 *                               CRYSTAL17                                     *
 *                      public : 1.0.2 - March 1st, 2018 STFC/Archer2 build    *
 *                       HTTP://WWW.CRYSTAL.UNITO.IT                           *
 *                                                                             *
 *                              MAIN AUTHORS                                   *
 *                                                                             *
 *  R. DOVESI(1,11), V.R. SAUNDERS(2), C. ROETTI(1,11), R. ORLANDO(1,11),      *
 *  C.M. ZICOVICH-WILSON(1,3), F. PASCALE(4), B. CIVALLERI(1,11),              *
 *  K. DOLL(5), N.M. HARRISON(2,6), I.J. BUSH(7), Ph. D'ARCO(8),               *
 *  M. LLUNELL(9), M. CAUSA'(10), Y. NOEL(8), L. MASCHIO(1,11), A. ERBA(1,11)  *
 *  M. RE'RAT(14), S. CASASSA(1,11)                                            *
 *                                                                             *
 *        CONTRIBUTIONS TO THE CODE HAVE ALSO BEEN GIVEN BY                    *
 *                                                                             *
 *  M. FERRABONE(1,11), M. DE LA PIERRE(1,11), M. FERRERO(1,11),               *
 *  J. BAIMA(1,11), E. ALBANESE(1,11), M.F. PEINTINGER(12), R. BAST(13),       *
 *  B. KIRTMAN(15), V. LACIVITA(1,11), R. DEMICHELIS(1,16)                     *
 *  G. BRANDEBURG(17), S. SALUSTRO(1,11), G. SANSONE(1,11)                     *
 *  M.T. RUGGIERO(18)                                                          *
 *                                                                             *
 * (1) THEORETICAL CHEMISTRY GROUP - UNIVERSITA' DI TORINO - TORINO (ITALY)    *
 * (2) COMPUTATIONAL SCIENCE & ENGINEERING DEPARTMENT - STFC DARESBURY (UK)    *
 * (3) UNIVERSIDAD AUTONOMA DEL ESTADO DE MORELOS - CUERNAVACA (MEXICO)        *
 * (4) UNIVERSITE' DE LORRAINE - NANCY (FRANCE)                                *
 * (5) UNIVERSITAET STUTTGART- STUTTGART (GERMANY)                             *
 * (6) IMPERIAL COLLEGE - LONDON (UK)                                          *
 * (7) OXFORD E-RESEARCH CENTRE - OXFORD (UK)                                  *
 * (8) UPMC - SORBONNE UNIVERSITES - PARIS (FRANCE)                            *
 * (9) UNIVERSIDAD DE BARCELONA - BARCELONA (SPAIN)                            *
 *(10) UNIVERSITA' DI NAPOLI "FEDERICO II" - NAPOLI (ITALY)                    *
 *(11) NIS - NANOSTRUCTURED INTERFACES AND SURFACES - TORINO (ITALY)           *
 *(12) MPI FUER CHEMISCHE ENERGIEKONVERSION - MUELHEIM AN DER RUHR (GERMANY)   *
 *(13) UNIVERSITY OF TROMSO - TROMSO (NORWAY)                                  *
 *(14) UNIVERSITE' DE PAU ET DES PAYS DE L'ADOUR - PAU (FRANCE)                *
 *(15) UNIVERSITY OF CALIFORNIA SANTA BARBARA - SANTA BARBARA (USA)            *
 *(16) CURTIN UNIVERSITY - PERTH (AUSTRALIA)                                   *
 *(17) UNIVERSITY COLLEGE LONDON - LONDON (UK)                                 *
 *(18) CAMBRIDGE UNIVERSITY - CAMBRIDGE (UK)                                   *
 *                                                                             *
 *******************************************************************************
 EEEEEEEEEE STARTING  DATE 31 10 2022 TIME 20:07:57.5
 Final                                                                           

 GEOMETRY INPUT FROM EXTERNAL FILE (FORTRAN UNIT 34)
 3D - CRYSTAL 

 *******************************************************************************
 LATTICE PARAMETERS  (ANGSTROMS AND DEGREES) - PRIMITIVE CELL
       A          B          C        ALPHA      BETA     GAMMA        VOLUME
    7.40317    7.40317    8.68504    90.00000  90.00000 120.00000    412.228566
 INFORMATION **** CHKGRP **** SPGR WITH NO INVERSION

 NUMBER OF IRREDUCIBLE ATOMS IN THE CELL:   15

 CARTESIAN COORDINATES (ANGSTROM) - IRREDUCIBLE ATOMS AND SYMMETRY RELATED

 AT.IRR.  AT  AT.N.          X                   Y                   Z
     1     1     6    2.467724141366E+00  2.849482394607E+00  2.605511400000E+00
     2     2     6    3.701586212049E+00  4.986594190562E+00  2.605511400000E+00
     3     3     6    2.467724141366E+00 -1.424741197304E+00  2.605511400000E+00
     4     4     6    3.701586212049E+00  7.123705986520E-01  2.605511400000E+00
     5     5     6    4.935448282733E+00  2.849482394607E+00  2.605511400000E+00
     6     6     6    3.701586212049E+00 -3.561852993259E+00  2.605511400000E+00
     7     7     6    6.169310353416E+00  7.123705986520E-01  2.605511400000E+00
     8     8     6    2.467724141366E+00  1.424741197304E+00  2.605511400000E+00
     9     9     6    3.701586212049E+00  3.561852993259E+00  2.605511400000E+00
    10    10     6    2.467724141366E+00 -2.849482394607E+00  2.605511400000E+00
    11    11     6    3.701586212049E+00 -7.123705986520E-01  2.605511400000E+00
    12    12     6    4.935448282733E+00  1.424741197304E+00  2.605511400000E+00
    13    13     6    3.701586212049E+00 -4.986594190562E+00  2.605511400000E+00
    14    14     6    4.935448282733E+00 -2.849482394607E+00  2.605511400000E+00
    15    15     6    6.169310353416E+00 -7.123705986520E-01  2.605511400000E+00

 SPACE  GROUP  N.                     :    1
 NUMBER OF SYMMETRY OPERATORS         :    1
 *******************************************************************************
 LATTICE PARAMETERS (ANGSTROMS AND DEGREES) - BOHR = 0.5291772083 ANGSTROM
 PRIMITIVE CELL - CENTRING CODE 1/0 VOLUME=   412.228566 - DENSITY  0.725 g/cm^3
         A              B              C           ALPHA      BETA       GAMMA 
     7.40317242     7.40317242     8.68503800    90.000000  90.000000 120.000000
 *******************************************************************************
 ATOMS IN THE ASYMMETRIC UNIT   15 - ATOMS IN THE UNIT CELL:   15
     ATOM                 X/A                 Y/B                 Z/C    
 *******************************************************************************
      1 T   6 C     1.111111111111E-01 -4.444444444445E-01  3.000000000000E-01
      2 T   6 C     1.111111111111E-01 -1.111111111111E-01  3.000000000000E-01
      3 T   6 C     4.444444444445E-01  2.222222222222E-01  3.000000000000E-01
      4 T   6 C     4.444444444444E-01 -4.444444444444E-01  3.000000000000E-01
      5 T   6 C     4.444444444446E-01 -1.111111111110E-01  3.000000000000E-01
      6 T   6 C    -2.222222222222E-01  2.222222222222E-01  3.000000000000E-01
      7 T   6 C    -2.222222222221E-01 -1.111111111110E-01  3.000000000000E-01
      8 T   6 C     2.222222222222E-01  4.444444444445E-01  3.000000000000E-01
      9 T   6 C     2.222222222222E-01 -2.222222222222E-01  3.000000000000E-01
     10 T   6 C    -4.444444444445E-01  1.111111111111E-01  3.000000000000E-01
     11 T   6 C    -4.444444444444E-01  4.444444444444E-01  3.000000000000E-01
     12 T   6 C    -4.444444444443E-01 -2.222222222221E-01  3.000000000000E-01
     13 T   6 C    -1.111111111111E-01  1.111111111111E-01  3.000000000000E-01
     14 T   6 C    -1.111111111110E-01  4.444444444446E-01  3.000000000000E-01
     15 T   6 C    -1.111111111110E-01 -2.222222222221E-01  3.000000000000E-01

 T = ATOM BELONGING TO THE ASYMMETRIC UNIT
 *******************************************************************************
 * GEOMETRY EDITING - INPUT COORDINATES ARE GIVEN IN ANGSTROM         
 *******************************************************************************

 USE OF SYMMETRY WILL BE SUBSEQUENTLY SUSPENDED
 INFORMATION **** NEW DEFAULT **** FINALRUN 4 FOR GEOMETRY OPTIMIZATIONS
 INFORMATION **** NEW DEFAULT **** OPTGEOM OPTIMIZES BOTH ATOMIC COORDINATES AND CELL PARAMETERS
 INFORMATION **** NEW DEFAULT **** TOL. ON ATOMIC DISP TO REDEFINE REF. GEOMETRY: 0.8 Angs
 INFORMATION **** NEW DEFAULT **** N POINTS TO REDEFINE REF. GEOMETRY: N OF OPT DEGS OF FREEDOM
 INFORMATION **** NEW DEFAULT **** TOL. ON ENERGY TO REDEFINE REF. GEOMETRY: 10**-3*(5*N. ATOMS)
 INFORMATION **** ATOMONLY **** ONLY ATOMIC COORDINATES ARE OPTIMIZED

 IMPORTANT INFORMATION:
 THE COORDINATE SYSTEM ADOPTED IN THE OPTIMIZATION IS NOT IN
 GENERAL HOMOGENEOUS UNITS. FOR THIS REASON THE GRADIENT AND 
 HESSIAN MATRIX IN TERMS OF THIS SYSTEM ARE GIVEN WITHOUT
 UNITS. FOR MORE DETAILS SEE THE MANUAL.

 *******************************************************************************
 ATOMIC POSITIONS OPTIMIZATION CONTROL

 INITIAL TRUST RADIUS         0.50000 MAXIMUM TRUST RADIUS               4.00000
 MAXIMUM GRADIENT COMPONENT   0.00045 MAXIMUM DISPLACEMENT COMPONENT     0.00180
 R.M.S. OF GRADIENT COMPONENT 0.00030 R.M.S. OF DISPLACEMENT COMPONENTS  0.00120
 THRESHOLD ON ENERGY CHANGE 0.100E-06 EXTRAPOLATING POLYNOMIAL ORDER           2
 MAXIMUM ALLOWED NUMBER OF STEPS   -1 SORTING OF ENERGY POINTS:               NO
 ANALYTICAL  GRADIENT                 HESSIAN UPDATING                      BFGS
 STEP SIZE NUMERICAL GRADIENT 0.00100
 INITIAL HESSIAN MATRIX: SCHLEGEL MODEL 2
 *******************************************************************************


 GCALCO - MAX INDICES DIRECT LATTICE VECTOR    16    16    12
 NO.OF VECTORS CREATED 6999 STARS  379 RMAX   166.99060 BOHR

 GEOMETRY FOR WAVE FUNCTION - DIMENSIONALITY OF THE SYSTEM    3
 (NON PERIODIC DIRECTION: LATTICE PARAMETER FORMALLY SET TO 500)
 *******************************************************************************
 LATTICE PARAMETERS (ANGSTROMS AND DEGREES) - BOHR = 0.5291772083 ANGSTROM
 PRIMITIVE CELL - CENTRING CODE 1/0 VOLUME=   412.228566 - DENSITY  0.725 g/cm^3
         A              B              C           ALPHA      BETA       GAMMA 
     7.40317242     7.40317242     8.68503800    90.000000  90.000000 120.000000
 *******************************************************************************
 ATOMS IN THE ASYMMETRIC UNIT   15 - ATOMS IN THE UNIT CELL:   15
     ATOM                 X/A                 Y/B                 Z/C    
 *******************************************************************************
      1 T   6 C     1.111111111111E-01 -4.444444444445E-01  3.000000000000E-01
      2 T   6 C     1.111111111111E-01 -1.111111111111E-01  3.000000000000E-01
      3 T   6 C     4.444444444445E-01  2.222222222222E-01  3.000000000000E-01
      4 T   6 C     4.444444444444E-01 -4.444444444444E-01  3.000000000000E-01
      5 T   6 C     4.444444444446E-01 -1.111111111110E-01  3.000000000000E-01
      6 T   6 C    -2.222222222222E-01  2.222222222222E-01  3.000000000000E-01
      7 T   6 C    -2.222222222221E-01 -1.111111111110E-01  3.000000000000E-01
      8 T   6 C     2.222222222222E-01  4.444444444445E-01  3.000000000000E-01
      9 T   6 C     2.222222222222E-01 -2.222222222222E-01  3.000000000000E-01
     10 T   6 C    -4.444444444445E-01  1.111111111111E-01  3.000000000000E-01
     11 T   6 C    -4.444444444444E-01  4.444444444444E-01  3.000000000000E-01
     12 T   6 C    -4.444444444443E-01 -2.222222222221E-01  3.000000000000E-01
     13 T   6 C    -1.111111111111E-01  1.111111111111E-01  3.000000000000E-01
     14 T   6 C    -1.111111111110E-01  4.444444444446E-01  3.000000000000E-01
     15 T   6 C    -1.111111111110E-01 -2.222222222221E-01  3.000000000000E-01

 T = ATOM BELONGING TO THE ASYMMETRIC UNIT

 ****    1 SYMMOPS - TRANSLATORS IN FRACTIONAL UNITS
 **** MATRICES AND TRANSLATORS IN THE CRYSTALLOGRAPHIC REFERENCE FRAME
   V INV                    ROTATION MATRICES                   TRANSLATORS
   1   1  1.00  0.00  0.00  0.00  1.00  0.00  0.00  0.00  1.00  0.00  0.00  0.00

 DIRECT LATTICE VECTORS CARTESIAN COMPONENTS (ANGSTROM)
          X                    Y                    Z
   0.370158621205E+01  -0.641133538787E+01   0.000000000000E+00
   0.370158621205E+01   0.641133538787E+01   0.000000000000E+00
   0.000000000000E+00   0.000000000000E+00   0.868503800000E+01


 CARTESIAN COORDINATES - PRIMITIVE CELL
 *******************************************************************************
 *      ATOM          X(ANGSTROM)         Y(ANGSTROM)         Z(ANGSTROM)
 *******************************************************************************
    1     6 C     2.467724141366E+00  2.849482394607E+00  2.605511400000E+00
    2     6 C     3.701586212049E+00  4.986594190562E+00  2.605511400000E+00
    3     6 C     2.467724141366E+00 -1.424741197304E+00  2.605511400000E+00
    4     6 C     3.701586212049E+00  7.123705986520E-01  2.605511400000E+00
    5     6 C     4.935448282733E+00  2.849482394607E+00  2.605511400000E+00
    6     6 C     3.701586212049E+00 -3.561852993259E+00  2.605511400000E+00
    7     6 C     6.169310353416E+00  7.123705986520E-01  2.605511400000E+00
    8     6 C     2.467724141366E+00  1.424741197304E+00  2.605511400000E+00
    9     6 C     3.701586212049E+00  3.561852993259E+00  2.605511400000E+00
   10     6 C     2.467724141366E+00 -2.849482394607E+00  2.605511400000E+00
   11     6 C     3.701586212049E+00 -7.123705986520E-01  2.605511400000E+00
   12     6 C     4.935448282733E+00  1.424741197304E+00  2.605511400000E+00
   13     6 C     3.701586212049E+00 -4.986594190562E+00  2.605511400000E+00
   14     6 C     4.935448282733E+00 -2.849482394607E+00  2.605511400000E+00
   15     6 C     6.169310353416E+00 -7.123705986520E-01  2.605511400000E+00

 *******************************************************************************
 LOCAL ATOMIC FUNCTIONS BASIS SET
 *******************************************************************************
   ATOM   X(AU)   Y(AU)   Z(AU)  N. TYPE  EXPONENT  S COEF   P COEF   D/F/G COEF
 *******************************************************************************
   1 C    4.663   5.385   4.924
                                  1 S  
                                         1.358E+04 2.225E-04 0.000E+00 0.000E+00
                                         2.035E+03 1.723E-03 0.000E+00 0.000E+00
                                         4.632E+02 8.926E-03 0.000E+00 0.000E+00
                                         1.312E+02 3.573E-02 0.000E+00 0.000E+00
                                         4.285E+01 1.108E-01 0.000E+00 0.000E+00
                                         1.558E+01 2.430E-01 0.000E+00 0.000E+00
                                  2 S  
                                         6.207E+00 4.144E-01 0.000E+00 0.000E+00
                                         2.576E+00 2.374E-01 0.000E+00 0.000E+00
                                  3 S  
                                         4.941E-01 1.000E+00 0.000E+00 0.000E+00
                                  4 S  
                                         1.644E-01 1.000E+00 0.000E+00 0.000E+00
                           5-     7 P  
                                         3.470E+01 0.000E+00 5.333E-03 0.000E+00
                                         7.958E+00 0.000E+00 3.586E-02 0.000E+00
                                         2.378E+00 0.000E+00 1.422E-01 0.000E+00
                                         8.143E-01 0.000E+00 3.427E-01 0.000E+00
                           8-    10 P  
                                         5.662E-01 0.000E+00 1.000E+00 0.000E+00
                          11-    13 P  
                                         1.974E-01 0.000E+00 1.000E+00 0.000E+00
                          14-    18 D  
                                         5.792E-01 0.000E+00 0.000E+00 1.000E+00
   2 C    6.995   9.423   4.924
   3 C    4.663  -2.692   4.924
   4 C    6.995   1.346   4.924
   5 C    9.327   5.385   4.924
   6 C    6.995  -6.731   4.924
   7 C   11.658   1.346   4.924
   8 C    4.663   2.692   4.924
   9 C    6.995   6.731   4.924
  10 C    4.663  -5.385   4.924
  11 C    6.995  -1.346   4.924
  12 C    9.327   2.692   4.924
  13 C    6.995  -9.423   4.924
  14 C    9.327  -5.385   4.924
  15 C   11.658  -1.346   4.924
 INFORMATION **** SET_MPP **** PCRYSTAL CALCULATION
 INFORMATION **** READM2 **** NEW DEFAULT: FOCK/KS MATRIX MIXING SET TO 30 %
 INFORMATION **** READM2 **** NEW DEFAULT: FULL DIRECT SCF MODE
 INFORMATION **** READM2 **** NEW DEFAULT: COULOMB BIPOLAR BUFFER SET TO 32 Mb
 INFORMATION **** READM2 **** NEW DEFAULT: EXCHANGE BIPOLAR BUFFER SET TO 32 Mb

 *******************************************************************************
 NEW DEFAULT: DFT INTEGRATION GRID INCREASED TO XLGRID
 NEW DEFAULT: DIIS ACCELERATOR ACTIVE
 USE KEYWORD NODIIS TO TURN IT OFF
 *******************************************************************************

 INFORMATION **** TOLINTEG **** COULOMB AND EXCHANGE SERIES TOLERANCES MODIFIED
 INFORMATION **** READM2 **** FULL DIRECT SCF (MONO AND BIEL INT) SELECTED
 INFORMATION **** MAXCYCLE **** MAX NUMBER OF SCF CYCLES SET TO         200
 INFORMATION **** TOLDEE **** SCF TOL ON TOTAL ENERGY SET TO           9
 *******************************************************************************
 N. OF ATOMS PER CELL        15  COULOMB OVERLAP TOL         (T1) 10**   -8
 NUMBER OF SHELLS           120  COULOMB PENETRATION TOL     (T2) 10**   -8
 NUMBER OF AO               270  EXCHANGE OVERLAP TOL        (T3) 10**   20
 N. OF ELECTRONS PER CELL    90  EXCHANGE PSEUDO OVP (F(G))  (T4) 10**   20
 CORE ELECTRONS PER CELL     30  EXCHANGE PSEUDO OVP (P(G))  (T5) 10**   20
 N. OF SYMMETRY OPERATORS     1  POLE ORDER IN MONO ZONE                  4
 *******************************************************************************
 TYPE OF CALCULATION :  RESTRICTED CLOSED SHELL
 KOHN-SHAM HAMILTONIAN

 (EXCHANGE)[CORRELATION] FUNCTIONAL:(PERDEW-BURKE-ERNZERHOF)[PERDEW-BURKE-ERNZERHOF]


 CAPPA:IS1  8;IS2  8;IS3  8; K PTS MONK NET 260; SYMMOPS:K SPACE   2;G SPACE   1

 *******************************************************************************
 MAX NUMBER OF SCF CYCLES     200  CONVERGENCE ON DELTAP        10**-19
 WEIGHT OF F(I) IN F(I+1)      30% CONVERGENCE ON ENERGY        10**- 9
 SHRINK. FACT.(MONKH.)    8  8  8  NUMBER OF K POINTS IN THE IBZ    260
 SHRINKING FACTOR(GILAT NET)   16  NUMBER OF K POINTS(GILAT NET)   2052
 *******************************************************************************
 *** K POINTS COORDINATES (OBLIQUE COORDINATES IN UNITS OF IS =  8)
   1-R(  0  0  0)   2-C(  1  0  0)   3-C(  2  0  0)   4-C(  3  0  0)
   5-R(  4  0  0)   6-C(  0  1  0)   7-C(  1  1  0)   8-C(  2  1  0)
   9-C(  3  1  0)  10-C(  4  1  0)  11-C(  5  1  0)  12-C(  6  1  0)
  13-C(  7  1  0)  14-C(  0  2  0)  15-C(  1  2  0)  16-C(  2  2  0)
  17-C(  3  2  0)  18-C(  4  2  0)  19-C(  5  2  0)  20-C(  6  2  0)
  21-C(  7  2  0)  22-C(  0  3  0)  23-C(  1  3  0)  24-C(  2  3  0)
  25-C(  3  3  0)  26-C(  4  3  0)  27-C(  5  3  0)  28-C(  6  3  0)
  29-C(  7  3  0)  30-R(  0  4  0)  31-C(  1  4  0)  32-C(  2  4  0)
  33-C(  3  4  0)  34-R(  4  4  0)  35-C(  0  0  1)  36-C(  1  0  1)
  37-C(  2  0  1)  38-C(  3  0  1)  39-C(  4  0  1)  40-C(  5  0  1)
  41-C(  6  0  1)  42-C(  7  0  1)  43-C(  0  1  1)  44-C(  1  1  1)
  45-C(  2  1  1)  46-C(  3  1  1)  47-C(  4  1  1)  48-C(  5  1  1)
  49-C(  6  1  1)  50-C(  7  1  1)  51-C(  0  2  1)  52-C(  1  2  1)
  53-C(  2  2  1)  54-C(  3  2  1)  55-C(  4  2  1)  56-C(  5  2  1)
  57-C(  6  2  1)  58-C(  7  2  1)  59-C(  0  3  1)  60-C(  1  3  1)
  61-C(  2  3  1)  62-C(  3  3  1)  63-C(  4  3  1)  64-C(  5  3  1)
  65-C(  6  3  1)  66-C(  7  3  1)  67-C(  0  4  1)  68-C(  1  4  1)
  69-C(  2  4  1)  70-C(  3  4  1)  71-C(  4  4  1)  72-C(  5  4  1)
  73-C(  6  4  1)  74-C(  7  4  1)  75-C(  0  5  1)  76-C(  1  5  1)
  77-C(  2  5  1)  78-C(  3  5  1)  79-C(  4  5  1)  80-C(  5  5  1)
  81-C(  6  5  1)  82-C(  7  5  1)  83-C(  0  6  1)  84-C(  1  6  1)
  85-C(  2  6  1)  86-C(  3  6  1)  87-C(  4  6  1)  88-C(  5  6  1)
  89-C(  6  6  1)  90-C(  7  6  1)  91-C(  0  7  1)  92-C(  1  7  1)
  93-C(  2  7  1)  94-C(  3  7  1)  95-C(  4  7  1)  96-C(  5  7  1)
  97-C(  6  7  1)  98-C(  7  7  1)  99-C(  0  0  2) 100-C(  1  0  2)
 101-C(  2  0  2) 102-C(  3  0  2) 103-C(  4  0  2) 104-C(  5  0  2)
 105-C(  6  0  2) 106-C(  7  0  2) 107-C(  0  1  2) 108-C(  1  1  2)
 109-C(  2  1  2) 110-C(  3  1  2) 111-C(  4  1  2) 112-C(  5  1  2)
 113-C(  6  1  2) 114-C(  7  1  2) 115-C(  0  2  2) 116-C(  1  2  2)
 117-C(  2  2  2) 118-C(  3  2  2) 119-C(  4  2  2) 120-C(  5  2  2)
 121-C(  6  2  2) 122-C(  7  2  2) 123-C(  0  3  2) 124-C(  1  3  2)
 125-C(  2  3  2) 126-C(  3  3  2) 127-C(  4  3  2) 128-C(  5  3  2)
 129-C(  6  3  2) 130-C(  7  3  2) 131-C(  0  4  2) 132-C(  1  4  2)
 133-C(  2  4  2) 134-C(  3  4  2) 135-C(  4  4  2) 136-C(  5  4  2)
 137-C(  6  4  2) 138-C(  7  4  2) 139-C(  0  5  2) 140-C(  1  5  2)
 141-C(  2  5  2) 142-C(  3  5  2) 143-C(  4  5  2) 144-C(  5  5  2)
 145-C(  6  5  2) 146-C(  7  5  2) 147-C(  0  6  2) 148-C(  1  6  2)
 149-C(  2  6  2) 150-C(  3  6  2) 151-C(  4  6  2) 152-C(  5  6  2)
 153-C(  6  6  2) 154-C(  7  6  2) 155-C(  0  7  2) 156-C(  1  7  2)
 157-C(  2  7  2) 158-C(  3  7  2) 159-C(  4  7  2) 160-C(  5  7  2)
 161-C(  6  7  2) 162-C(  7  7  2) 163-C(  0  0  3) 164-C(  1  0  3)
 165-C(  2  0  3) 166-C(  3  0  3) 167-C(  4  0  3) 168-C(  5  0  3)
 169-C(  6  0  3) 170-C(  7  0  3) 171-C(  0  1  3) 172-C(  1  1  3)
 173-C(  2  1  3) 174-C(  3  1  3) 175-C(  4  1  3) 176-C(  5  1  3)
 177-C(  6  1  3) 178-C(  7  1  3) 179-C(  0  2  3) 180-C(  1  2  3)
 181-C(  2  2  3) 182-C(  3  2  3) 183-C(  4  2  3) 184-C(  5  2  3)
 185-C(  6  2  3) 186-C(  7  2  3) 187-C(  0  3  3) 188-C(  1  3  3)
 189-C(  2  3  3) 190-C(  3  3  3) 191-C(  4  3  3) 192-C(  5  3  3)
 193-C(  6  3  3) 194-C(  7  3  3) 195-C(  0  4  3) 196-C(  1  4  3)
 197-C(  2  4  3) 198-C(  3  4  3) 199-C(  4  4  3) 200-C(  5  4  3)
 201-C(  6  4  3) 202-C(  7  4  3) 203-C(  0  5  3) 204-C(  1  5  3)
 205-C(  2  5  3) 206-C(  3  5  3) 207-C(  4  5  3) 208-C(  5  5  3)
 209-C(  6  5  3) 210-C(  7  5  3) 211-C(  0  6  3) 212-C(  1  6  3)
 213-C(  2  6  3) 214-C(  3  6  3) 215-C(  4  6  3) 216-C(  5  6  3)
 217-C(  6  6  3) 218-C(  7  6  3) 219-C(  0  7  3) 220-C(  1  7  3)
 221-C(  2  7  3) 222-C(  3  7  3) 223-C(  4  7  3) 224-C(  5  7  3)
 225-C(  6  7  3) 226-C(  7  7  3) 227-R(  0  0  4) 228-C(  1  0  4)
 229-C(  2  0  4) 230-C(  3  0  4) 231-R(  4  0  4) 232-C(  0  1  4)
 233-C(  1  1  4) 234-C(  2  1  4) 235-C(  3  1  4) 236-C(  4  1  4)
 237-C(  5  1  4) 238-C(  6  1  4) 239-C(  7  1  4) 240-C(  0  2  4)
 241-C(  1  2  4) 242-C(  2  2  4) 243-C(  3  2  4) 244-C(  4  2  4)
 245-C(  5  2  4) 246-C(  6  2  4) 247-C(  7  2  4) 248-C(  0  3  4)
 249-C(  1  3  4) 250-C(  2  3  4) 251-C(  3  3  4) 252-C(  4  3  4)
 253-C(  5  3  4) 254-C(  6  3  4) 255-C(  7  3  4) 256-R(  0  4  4)
 257-C(  1  4  4) 258-C(  2  4  4) 259-C(  3  4  4) 260-R(  4  4  4)

 DIRECT LATTICE VECTORS COMPON. (A.U.)     RECIP. LATTICE VECTORS COMPON. (A.U.) 
        X            Y            Z              X            Y            Z
    6.9949842  -12.1156680    0.0000000      0.4491208   -0.2593000    0.0000000
    6.9949842   12.1156680    0.0000000      0.4491208    0.2593000   -0.0000000
    0.0000000    0.0000000   16.4123433     -0.0000000    0.0000000    0.3828329

 DISK SPACE FOR EIGENVECTORS (FTN 10)    37324800 REALS

 SYMMETRY ADAPTION OF THE BLOCH FUNCTIONS DISABLED
 TTTTTTTTTTTTTTTTTTTTTTTTTTTTTT gordsh1     TELAPSE        2.43 TCPU        1.01

 MATRIX SIZE: P(G)  110574, F(G)   55467, P(G) IRR   55752, F(G) IRR   55752
 MAX G-VECTOR INDEX FOR 1- AND 2-ELECTRON INTEGRALS  27

 TTTTTTTTTTTTTTTTTTTTTTTTTTTTTT INPUT       TELAPSE        2.46 TCPU        1.04

 NEIGHBORS OF THE NON-EQUIVALENT ATOMS

 N = NUMBER OF NEIGHBORS AT DISTANCE R
    ATOM  N     R/ANG      R/AU   NEIGHBORS (ATOM LABELS AND CELL INDICES)
   1 C    3     1.4247     2.6924    8 C    0 0 0    9 C    0 0 0   14 C   -1 0 0
   1 C    4     2.4677     4.6633    2 C    0 0 0    4 C    0 0 0    5 C    0 0 0
                                     6 C   -1 0 0
   1 C    3     2.8495     5.3847   12 C    0 0 0   13 C   -1 0 0   15 C   -1 0 0
   1 C    4     3.7695     7.1233   10 C   -1 0 0   10 C    0 1 0   11 C    0 0 0
                                    11 C   -1 0 0
   1 C    6     4.2742     8.0771    3 C    0 0 0    3 C   -1 0 0    3 C    0 1 0
                                     7 C    0 0 0    7 C   -1-1 0    7 C   -1 0 0
   1 C    4     4.9354     9.3266    2 C    0-1 0    4 C   -1 0 0    5 C   -1-1 0
                                     6 C    0 1 0

   2 C    2     1.4247     2.6924    9 C    0 0 0   15 C   -1 0 0
   2 C    4     2.4677     4.6633    1 C    0 0 0    3 C    0 1 0    5 C    0 0 0
                                     7 C   -1 0 0
   2 C    3     2.8495     5.3847   10 C    0 1 0   13 C   -1 1 0   14 C   -1 0 0
   2 C    6     3.7695     7.1233    8 C    0 0 0    8 C    0 1 0   11 C   -1 0 0
                                    11 C    0 1 0   12 C    0 0 0   12 C   -1 0 0
   2 C    6     4.2742     8.0771    4 C    0 0 0    4 C   -1 0 0    4 C    0 1 0
                                     6 C   -1 0 0    6 C    0 1 0    6 C   -1 1 0
   2 C    4     4.9354     9.3266    1 C    0 1 0    3 C   -1 0 0    5 C   -1 0 0
                                     7 C    0 0 0

   3 C    2     1.4247     2.6924   10 C    0 0 0   11 C    0 0 0
   3 C    4     2.4677     4.6633    2 C    0-1 0    4 C    0 0 0    5 C    0-1 0
                                     6 C    0 0 0
   3 C    3     2.8495     5.3847    8 C    0 0 0    9 C    0-1 0   14 C    0 0 0
   3 C    6     3.7695     7.1233   12 C    0 0 0   12 C    0-1 0   13 C    0 0 0
                                    13 C   -1 0 0   15 C    0 0 0   15 C   -1-1 0
   3 C    6     4.2742     8.0771    1 C    0 0 0    1 C    1 0 0    1 C    0-1 0
                                     7 C    0 0 0    7 C   -1-1 0    7 C    0-1 0
   3 C    4     4.9354     9.3266    2 C    1 0 0    4 C    0-1 0    5 C    0 0 0
                                     6 C   -1 0 0

   4 C    3     1.4247     2.6924    8 C    0 0 0   11 C    0 0 0   12 C    0 0 0
   4 C    4     2.4677     4.6633    1 C    0 0 0    3 C    0 0 0    5 C    0 0 0
                                     7 C    0 0 0
   4 C    2     2.8495     5.3847    9 C    0 0 0   15 C    0 0 0
   4 C    6     3.7695     7.1233   10 C    0 0 0   10 C    0 1 0   13 C   -1 0 0
                                    13 C    0 1 0   14 C    0 0 0   14 C   -1 0 0
   4 C    6     4.2742     8.0771    2 C    0 0 0    2 C    1 0 0    2 C    0-1 0
                                     6 C    0 0 0    6 C   -1 0 0    6 C    0 1 0
   4 C    4     4.9354     9.3266    1 C    1 0 0    3 C    0 1 0    5 C    0-1 0
                                     7 C   -1-1 0

   5 C    3     1.4247     2.6924    9 C    0 0 0   10 C    0 1 0   12 C    0 0 0
   5 C    6     2.4677     4.6633    1 C    0 0 0    2 C    0 0 0    3 C    0 1 0
                                     4 C    0 0 0    6 C    0 1 0    7 C    0 0 0
   5 C    2     2.8495     5.3847    8 C    0 0 0   13 C    0 1 0
   5 C    6     3.7695     7.1233   11 C    0 0 0   11 C    0 1 0   14 C   -1 0 0
                                    14 C    0 1 0   15 C    0 0 0   15 C   -1 0 0
   5 C    6     4.9354     9.3266    1 C    1 1 0    2 C    1 0 0    3 C    0 0 0
                                     4 C    0 1 0    6 C   -1 0 0    7 C   -1 0 0
   5 C    4     5.1370     9.7075    8 C    1 1 0    8 C    0 1 0   13 C   -1 0 0
                                    13 C   -1 1 0

   6 C    3     1.4247     2.6924   10 C    0 0 0   13 C    0 0 0   14 C    0 0 0
   6 C    4     2.4677     4.6633    1 C    1 0 0    3 C    0 0 0    5 C    0-1 0
                                     7 C    0-1 0
   6 C    3     2.8495     5.3847    8 C    1 0 0   11 C    0 0 0   12 C    0-1 0
   6 C    4     3.7695     7.1233    9 C    1 0 0    9 C    0-1 0   15 C    0 0 0
                                    15 C    0-1 0
   6 C    6     4.2742     8.0771    2 C    1 0 0    2 C    0-1 0    2 C    1-1 0
                                     4 C    0 0 0    4 C    1 0 0    4 C    0-1 0
   6 C    4     4.9354     9.3266    1 C    0-1 0    3 C    1 0 0    5 C    1 0 0
                                     7 C    0 0 0

   7 C    3     1.4247     2.6924   12 C    0 0 0   13 C    0 1 0   15 C    0 0 0
   7 C    4     2.4677     4.6633    2 C    1 0 0    4 C    0 0 0    5 C    0 0 0
                                     6 C    0 1 0
   7 C    2     2.8495     5.3847   10 C    0 1 0   11 C    0 0 0
   7 C    6     3.7695     7.1233    8 C    0 0 0    8 C    1 1 0    9 C    0 0 0
                                     9 C    1 0 0   14 C    0 0 0   14 C    0 1 0
   7 C    6     4.2742     8.0771    1 C    0 0 0    1 C    1 1 0    1 C    1 0 0
                                     3 C    0 0 0    3 C    1 1 0    3 C    0 1 0
   7 C    4     4.9354     9.3266    2 C    0 0 0    4 C    1 1 0    5 C    1 0 0
                                     6 C    0 0 0

   8 C    2     1.4247     2.6924    1 C    0 0 0    4 C    0 0 0
   8 C    5     2.4677     4.6633    9 C    0 0 0   11 C    0 0 0   12 C    0 0 0
                                    13 C   -1 0 0   14 C   -1 0 0
   8 C    3     2.8495     5.3847    3 C    0 0 0    5 C    0 0 0    6 C   -1 0 0
   8 C    4     3.7695     7.1233    2 C    0 0 0    2 C    0-1 0    7 C    0 0 0
                                     7 C   -1-1 0
   8 C    6     4.2742     8.0771   10 C    0 0 0   10 C   -1 0 0   10 C    0 1 0
                                    15 C    0 0 0   15 C   -1-1 0   15 C   -1 0 0
   8 C    5     4.9354     9.3266    9 C    0-1 0   11 C   -1 0 0   12 C   -1-1 0
                                    13 C    0 1 0   14 C    0 0 0

   9 C    3     1.4247     2.6924    1 C    0 0 0    2 C    0 0 0    5 C    0 0 0
   9 C    5     2.4677     4.6633    8 C    0 0 0   10 C    0 1 0   12 C    0 0 0
                                    14 C   -1 0 0   15 C   -1 0 0
   9 C    2     2.8495     5.3847    3 C    0 1 0    4 C    0 0 0
   9 C    4     3.7695     7.1233    6 C   -1 0 0    6 C    0 1 0    7 C    0 0 0
                                     7 C   -1 0 0
   9 C    6     4.2742     8.0771   11 C    0 0 0   11 C   -1 0 0   11 C    0 1 0
                                    13 C   -1 0 0   13 C    0 1 0   13 C   -1 1 0
   9 C    5     4.9354     9.3266    8 C    0 1 0   10 C   -1 0 0   12 C   -1 0 0
                                    14 C    0 1 0   15 C    0 0 0

  10 C    3     1.4247     2.6924    3 C    0 0 0    5 C    0-1 0    6 C    0 0 0
  10 C    5     2.4677     4.6633    9 C    0-1 0   11 C    0 0 0   12 C    0-1 0
                                    13 C    0 0 0   14 C    0 0 0
  10 C    2     2.8495     5.3847    2 C    0-1 0    7 C    0-1 0
  10 C    4     3.7695     7.1233    1 C    1 0 0    1 C    0-1 0    4 C    0 0 0
                                     4 C    0-1 0
  10 C    6     4.2742     8.0771    8 C    0 0 0    8 C    1 0 0    8 C    0-1 0
                                    15 C    0 0 0   15 C   -1-1 0   15 C    0-1 0
  10 C    5     4.9354     9.3266    9 C    1 0 0   11 C    0-1 0   12 C    0 0 0
                                    13 C   -1 0 0   14 C   -1-1 0

  11 C    2     1.4247     2.6924    3 C    0 0 0    4 C    0 0 0
  11 C    5     2.4677     4.6633    8 C    0 0 0   10 C    0 0 0   12 C    0 0 0
                                    14 C    0 0 0   15 C    0 0 0
  11 C    2     2.8495     5.3847    6 C    0 0 0    7 C    0 0 0
  11 C    6     3.7695     7.1233    1 C    0 0 0    1 C    1 0 0    2 C    1 0 0
                                     2 C    0-1 0    5 C    0 0 0    5 C    0-1 0
  11 C    6     4.2742     8.0771    9 C    0 0 0    9 C    1 0 0    9 C    0-1 0
                                    13 C    0 0 0   13 C   -1 0 0   13 C    0 1 0
  11 C    5     4.9354     9.3266    8 C    1 0 0   10 C    0 1 0   12 C    0-1 0
                                    14 C   -1 0 0   15 C   -1-1 0

  12 C    3     1.4247     2.6924    4 C    0 0 0    5 C    0 0 0    7 C    0 0 0
  12 C    6     2.4677     4.6633    8 C    0 0 0    9 C    0 0 0   10 C    0 1 0
                                    11 C    0 0 0   13 C    0 1 0   15 C    0 0 0
  12 C    2     2.8495     5.3847    1 C    0 0 0    6 C    0 1 0
  12 C    4     3.7695     7.1233    2 C    0 0 0    2 C    1 0 0    3 C    0 0 0
                                     3 C    0 1 0
  12 C    3     4.2742     8.0771   14 C    0 0 0   14 C   -1 0 0   14 C    0 1 0
  12 C    6     4.9354     9.3266    8 C    1 1 0    9 C    1 0 0   10 C    0 0 0
                                    11 C    0 1 0   13 C   -1 0 0   15 C   -1 0 0

  13 C    2     1.4247     2.6924    6 C    0 0 0    7 C    0-1 0
  13 C    5     2.4677     4.6633    8 C    1 0 0   10 C    0 0 0   12 C    0-1 0
                                    14 C    0 0 0   15 C    0-1 0
  13 C    3     2.8495     5.3847    1 C    1 0 0    2 C    1-1 0    5 C    0-1 0
  13 C    4     3.7695     7.1233    3 C    0 0 0    3 C    1 0 0    4 C    1 0 0
                                     4 C    0-1 0
  13 C    6     4.2742     8.0771    9 C    1 0 0    9 C    0-1 0    9 C    1-1 0
                                    11 C    0 0 0   11 C    1 0 0   11 C    0-1 0
  13 C    5     4.9354     9.3266    8 C    0-1 0   10 C    1 0 0   12 C    1 0 0
                                    14 C    0-1 0   15 C    0 0 0

  14 C    2     1.4247     2.6924    1 C    1 0 0    6 C    0 0 0
  14 C    6     2.4677     4.6633    8 C    1 0 0    9 C    1 0 0   10 C    0 0 0
                                    11 C    0 0 0   13 C    0 0 0   15 C    0 0 0
  14 C    2     2.8495     5.3847    2 C    1 0 0    3 C    0 0 0
  14 C    6     3.7695     7.1233    4 C    0 0 0    4 C    1 0 0    5 C    1 0 0
                                     5 C    0-1 0    7 C    0 0 0    7 C    0-1 0
  14 C    3     4.2742     8.0771   12 C    0 0 0   12 C    1 0 0   12 C    0-1 0
  14 C    6     4.9354     9.3266    8 C    0 0 0    9 C    0-1 0   10 C    1 1 0
                                    11 C    1 0 0   13 C    0 1 0   15 C    0-1 0

  15 C    2     1.4247     2.6924    2 C    1 0 0    7 C    0 0 0
  15 C    5     2.4677     4.6633    9 C    1 0 0   11 C    0 0 0   12 C    0 0 0
                                    13 C    0 1 0   14 C    0 0 0
  15 C    2     2.8495     5.3847    1 C    1 0 0    4 C    0 0 0
  15 C    6     3.7695     7.1233    3 C    0 0 0    3 C    1 1 0    5 C    0 0 0
                                     5 C    1 0 0    6 C    0 0 0    6 C    0 1 0
  15 C    6     4.2742     8.0771    8 C    0 0 0    8 C    1 1 0    8 C    1 0 0
                                    10 C    0 0 0   10 C    1 1 0   10 C    0 1 0
  15 C    5     4.9354     9.3266    9 C    0 0 0   11 C    1 1 0   12 C    1 0 0
                                    13 C    0 0 0   14 C    0 1 0


 SYMMETRY ALLOWED INTERNAL DEGREE(S) OF FREEDOM:  42
 TTTTTTTTTTTTTTTTTTTTTTTTTTTTTT SYMM        TELAPSE        2.46 TCPU        1.04
 TTTTTTTTTTTTTTTTTTTTTTTTTTTTTT INT_SCREEN  TELAPSE        2.46 TCPU        1.05

 *******************************************************************************
 *                             OPTIMIZATION STARTS                             *
 *******************************************************************************
 RECLASIFICATION OF INDICES FOR INTEGRAL CALC ACCORDING TO DIFFERENT CRITERIA:
           FIXDELTE                  FIXDELTX              FIXDELTN
          0.10000000               0.80000000                 42
 DEFAULT MAX NUM OF POINTS  100
 *******************************************************************************

 *******************************************************************************
 COORDINATE OPTIMIZATION - POINT    1
 INFORMATION **** EXCBUF **** EXCH. BIPO BUFFER: WORDS USED =           0

 DFT PARAMETERS

     ATOM       ELECTRONS   NET CHARGE   R(ANGSTROM)
   1   6  C       6.0000      0.0000     0.77000000

 SIZE OF GRID=     503464
 TTTTTTTTTTTTTTTTTTTTTTTTTTTTTT MAKE_GRID2  TELAPSE        2.88 TCPU        1.46
 BECKE WEIGHT FUNCTION
 RADSAFE =     2.00
 TOLERANCES - DENSITY:10**- 6; POTENTIAL:10**- 9; GRID WGT:10**-14

 RADIAL INTEGRATION  - INTERVALS (POINTS,UPPER LIMIT):            1( 75,  4.0*R)

 ANGULAR INTEGRATION - INTERVALS (ACCURACY LEVEL [N. POINTS] UPPER LIMIT):
  1(  4[  86]   0.2)  2(  8[ 194]   0.5)  3( 12[ 350]   0.9)  4( 16[ 974]   3.5)
  5( 12[ 350]9999.0)
 TTTTTTTTTTTTTTTTTTTTTTTTTTTTTT INT_CALC    TELAPSE        2.92 TCPU        1.50

 *******************************************************************************
 Final                                                                           
 CRYSTAL - SCF - TYPE OF CALCULATION :  RESTRICTED CLOSED SHELL
 *******************************************************************************

 CAPPA:IS1  8;IS2  8;IS3  8; K PTS MONK NET 260; SYMMOPS:K SPACE   2;G SPACE   1

 TTTTTTTTTTTTTTTTTTTTTTTTTTTTTT SDIK        TELAPSE        2.99 TCPU        1.57

 AAAAAAAAAAAAAAAAAAAAAAAAAAAAAAAAAAAAAAAAAAAAAAAAAAAAAAAAAAAAAAAAAAAAAAAAAAAAAAA
         ATOMIC WAVEFUNCTION(S)


 NUCLEAR CHARGE  6.0  SYMMETRY SPECIES            S    P
 N. ELECTRONS    6.0  NUMBER OF PRIMITIVE GTOS   10    6
                      NUMBER OF CONTRACTED GTOS   4    3
                      NUMBER OF CLOSED SHELLS     2    0
                      OPEN SHELL OCCUPATION       0    2

  ZNUC SCFIT  TOTAL HF ENERGY   KINETIC ENERGY   VIRIAL THEOREM ACCURACY
   6.0  10   -3.768111494E+01  3.771190961E+01 -1.999183423E+00  3.4E-06

 AAAAAAAAAAAAAAAAAAAAAAAAAAAAAAAAAAAAAAAAAAAAAAAAAAAAAAAAAAAAAAAAAAAAAAAAAAAAAAA

 CHARGE NORMALIZATION FACTOR   1.00000000
 TOTAL ATOMIC CHARGES:
   6.0000000   6.0000000   6.0000000   6.0000000   6.0000000   6.0000000
   6.0000000   6.0000000   6.0000000   6.0000000   6.0000000   6.0000000
   6.0000000   6.0000000   6.0000000
 TTTTTTTTTTTTTTTTTTTTTTTTTTTTTT MOQGAD      TELAPSE        3.00 TCPU        1.58
 TTTTTTTTTTTTTTTTTTTTTTTTTTTTTT SHELLXN     TELAPSE        3.64 TCPU        2.20
 TTTTTTTTTTTTTTTTTTTTTTTTTTTTTT MONMO3      TELAPSE        3.73 TCPU        2.30
 NUMERICALLY INTEGRATED DENSITY     89.9997960592
 TTTTTTTTTTTTTTTTTTTTTTTTTTTTTT NUMDFT      TELAPSE        3.89 TCPU        2.45
 CYC   0 ETOT(AU) -5.739723838903E+02 DETOT -5.74E+02 tst  0.00E+00 PX  1.00E+00
 TTTTTTTTTTTTTTTTTTTTTTTTTTTTTT DIIS        TELAPSE        3.90 TCPU        2.46
 TTTTTTTTTTTTTTTTTTTTTTTTTTTTTT FDIK        TELAPSE        4.06 TCPU        2.62
 POSSIBLY CONDUCTING STATE - EFERMI(AU) -2.3694159E-01 (RES. CHARGE  1.47E-12;IT. 16)
 TTTTTTTTTTTTTTTTTTTTTTTTTTTTTT PDIG        TELAPSE        4.14 TCPU        2.70
 CHARGE NORMALIZATION FACTOR   1.00000000
 TOTAL ATOMIC CHARGES:
   6.1313391   6.2093171   6.2093170   6.0537570   6.0477674   6.1313342
   6.0537573   5.7894392   5.9895185   5.9895232   5.9019681   5.9590859
   5.7894374   5.8424701   5.9019685
 TTTTTTTTTTTTTTTTTTTTTTTTTTTTTT MOQGAD      TELAPSE        4.14 TCPU        2.70
 TTTTTTTTTTTTTTTTTTTTTTTTTTTTTT SHELLXN     TELAPSE        4.87 TCPU        3.43
 TTTTTTTTTTTTTTTTTTTTTTTTTTTTTT MONMO3      TELAPSE        4.99 TCPU        3.55
 NUMERICALLY INTEGRATED DENSITY     89.9998416883
 TTTTTTTTTTTTTTTTTTTTTTTTTTTTTT NUMDFT      TELAPSE        5.25 TCPU        3.81
 CYC   1 ETOT(AU) -5.704805098289E+02 DETOT  3.49E+00 tst  0.00E+00 PX  1.00E+00
 TTTTTTTTTTTTTTTTTTTTTTTTTTTTTT DIIS        TELAPSE        5.26 TCPU        3.82
 DIIS TEST: 0.68447E+00 AT SCF   CYCLE   1 - MIX   30 %
 TTTTTTTTTTTTTTTTTTTTTTTTTTTTTT FDIK        TELAPSE        5.43 TCPU        3.98
 POSSIBLY CONDUCTING STATE - EFERMI(AU) -1.9164492E-01 (RES. CHARGE  7.82E-11;IT. 12)
 TTTTTTTTTTTTTTTTTTTTTTTTTTTTTT PDIG        TELAPSE        5.53 TCPU        4.08
 CHARGE NORMALIZATION FACTOR   1.00000000
 TOTAL ATOMIC CHARGES:
   5.8293886   5.2900655   5.2900655   5.8616528   5.8557116   5.8293830
   5.8616537   6.4282005   5.8042574   5.8042625   6.5158977   6.0808286
   6.4281990   6.6045354   6.5158982
 TTTTTTTTTTTTTTTTTTTTTTTTTTTTTT MOQGAD      TELAPSE        5.53 TCPU        4.08
 TTTTTTTTTTTTTTTTTTTTTTTTTTTTTT SHELLXN     TELAPSE        6.25 TCPU        4.81
 TTTTTTTTTTTTTTTTTTTTTTTTTTTTTT MONMO3      TELAPSE        6.37 TCPU        4.93
 NUMERICALLY INTEGRATED DENSITY     89.9998130673
 TTTTTTTTTTTTTTTTTTTTTTTTTTTTTT NUMDFT      TELAPSE        6.74 TCPU        5.29
 CYC   2 ETOT(AU) -5.700881002030E+02 DETOT  3.92E-01 tst  2.09E-02 PX  1.55E-01
 TTTTTTTTTTTTTTTTTTTTTTTTTTTTTT DIIS        TELAPSE        6.75 TCPU        5.30
 DIIS TEST: 0.41029E+01 AT SCF   CYCLE   2 - DIIS ACTIVE - HISTORY:     2 CYCLES
 TTTTTTTTTTTTTTTTTTTTTTTTTTTTTT FDIK        TELAPSE        6.93 TCPU        5.49
 POSSIBLY CONDUCTING STATE - EFERMI(AU) -1.5234337E-01 (RES. CHARGE  6.69E-11;IT. 10)
 TTTTTTTTTTTTTTTTTTTTTTTTTTTTTT PDIG        TELAPSE        7.02 TCPU        5.57
 CHARGE NORMALIZATION FACTOR   1.00000000
 TOTAL ATOMIC CHARGES:
   5.8753693   6.2227966   6.2227965   5.8893622   6.0537230   5.8753637
   5.8893628   5.9694141   6.1466471   6.1466522   6.0384058   6.0425135
   5.9694119   5.6197753   6.0384062
 TTTTTTTTTTTTTTTTTTTTTTTTTTTTTT MOQGAD      TELAPSE        7.02 TCPU        5.57
 TTTTTTTTTTTTTTTTTTTTTTTTTTTTTT SHELLXN     TELAPSE        7.75 TCPU        6.30
 TTTTTTTTTTTTTTTTTTTTTTTTTTTTTT MONMO3      TELAPSE        7.86 TCPU        6.41
 NUMERICALLY INTEGRATED DENSITY     89.9997980102
 TTTTTTTTTTTTTTTTTTTTTTTTTTTTTT NUMDFT      TELAPSE        8.22 TCPU        6.77
 CYC   3 ETOT(AU) -5.704886344309E+02 DETOT -4.01E-01 tst  9.93E-02 PX  1.96E-01
 TTTTTTTTTTTTTTTTTTTTTTTTTTTTTT DIIS        TELAPSE        8.23 TCPU        6.78
 DIIS TEST: 0.78517E+00 AT SCF   CYCLE   3 - DIIS ACTIVE - HISTORY:     3 CYCLES
 TTTTTTTTTTTTTTTTTTTTTTTTTTTTTT FDIK        TELAPSE        8.40 TCPU        6.95
 INSULATING STATE
 TOP OF VALENCE BANDS -    BAND     45; K   13; EIG -1.8234918E-01 AU
 TOP OF VALENCE BANDS -    BAND     45; K    1; EIG -1.8296380E-01 AU
 BOTTOM OF VIRTUAL BANDS - BAND     46; K   20; EIG -1.8087045E-01 AU
 INDIRECT ENERGY BAND GAP:   0.0402 eV
 BOTTOM OF VIRTUAL BANDS - BAND     46; K    1; EIG -1.5290988E-01 AU
 TTTTTTTTTTTTTTTTTTTTTTTTTTTTTT PDIG        TELAPSE        8.45 TCPU        6.99
 CHARGE NORMALIZATION FACTOR   1.00000000
 TOTAL ATOMIC CHARGES:
   6.0993253   6.0472449   6.0472448   5.9796915   5.9924676   6.0993200
   5.9796921   5.8752740   5.9200436   5.9200486   5.8700983   5.9371371
   5.8752725   6.4870410   5.8700986
 TTTTTTTTTTTTTTTTTTTTTTTTTTTTTT MOQGAD      TELAPSE        8.45 TCPU        7.00
 TTTTTTTTTTTTTTTTTTTTTTTTTTTTTT SHELLXN     TELAPSE        9.18 TCPU        7.72
 TTTTTTTTTTTTTTTTTTTTTTTTTTTTTT MONMO3      TELAPSE        9.29 TCPU        7.84
 NUMERICALLY INTEGRATED DENSITY     89.9998108345
 TTTTTTTTTTTTTTTTTTTTTTTTTTTTTT NUMDFT      TELAPSE        9.55 TCPU        8.09
 CYC   4 ETOT(AU) -5.705167321894E+02 DETOT -2.81E-02 tst  9.87E-03 PX  1.96E-01
 TTTTTTTTTTTTTTTTTTTTTTTTTTTTTT DIIS        TELAPSE        9.56 TCPU        8.11
 DIIS TEST: 0.58858E+00 AT SCF   CYCLE   4 - DIIS ACTIVE - HISTORY:     4 CYCLES
 TTTTTTTTTTTTTTTTTTTTTTTTTTTTTT FDIK        TELAPSE        9.74 TCPU        8.29
 POSSIBLY CONDUCTING STATE - EFERMI(AU) -1.7802075E-01 (RES. CHARGE  1.13E-12;IT. 12)
 TTTTTTTTTTTTTTTTTTTTTTTTTTTTTT PDIG        TELAPSE        9.83 TCPU        8.37
 CHARGE NORMALIZATION FACTOR   1.00000000
 TOTAL ATOMIC CHARGES:
   6.0559938   5.9950223   5.9950223   6.0358571   6.0009163   6.0559884
   6.0358576   5.9416203   5.9574834   5.9574884   6.0866787   6.0474665
   5.9416185   5.8063073   6.0866791
 TTTTTTTTTTTTTTTTTTTTTTTTTTTTTT MOQGAD      TELAPSE        9.83 TCPU        8.37
 TTTTTTTTTTTTTTTTTTTTTTTTTTTTTT SHELLXN     TELAPSE       10.56 TCPU        9.10
 TTTTTTTTTTTTTTTTTTTTTTTTTTTTTT MONMO3      TELAPSE       10.67 TCPU        9.21
 NUMERICALLY INTEGRATED DENSITY     89.9998120282
 TTTTTTTTTTTTTTTTTTTTTTTTTTTTTT NUMDFT      TELAPSE       11.04 TCPU        9.58
 CYC   5 ETOT(AU) -5.705815403667E+02 DETOT -6.48E-02 tst  2.87E-03 PX  1.37E-01
 TTTTTTTTTTTTTTTTTTTTTTTTTTTTTT DIIS        TELAPSE       11.06 TCPU        9.60
 DIIS TEST: 0.87255E-01 AT SCF   CYCLE   5 - DIIS ACTIVE - HISTORY:     5 CYCLES
 TTTTTTTTTTTTTTTTTTTTTTTTTTTTTT FDIK        TELAPSE       11.24 TCPU        9.78
 POSSIBLY CONDUCTING STATE - EFERMI(AU) -1.8350416E-01 (RES. CHARGE  4.46E-11;IT.  8)
 TTTTTTTTTTTTTTTTTTTTTTTTTTTTTT PDIG        TELAPSE       11.33 TCPU        9.86
 CHARGE NORMALIZATION FACTOR   1.00000000
 TOTAL ATOMIC CHARGES:
   5.9981284   6.0088763   6.0088762   5.9584010   6.0128962   5.9981230
   5.9584016   5.9735597   5.9917745   5.9917795   6.0628119   5.9780715
   5.9735578   6.0219301   6.0628123
 TTTTTTTTTTTTTTTTTTTTTTTTTTTTTT MOQGAD      TELAPSE       11.33 TCPU        9.86
 TTTTTTTTTTTTTTTTTTTTTTTTTTTTTT SHELLXN     TELAPSE       12.05 TCPU       10.59
 TTTTTTTTTTTTTTTTTTTTTTTTTTTTTT MONMO3      TELAPSE       12.17 TCPU       10.71
 NUMERICALLY INTEGRATED DENSITY     89.9998133171
 TTTTTTTTTTTTTTTTTTTTTTTTTTTTTT NUMDFT      TELAPSE       12.54 TCPU       11.07
 CYC   6 ETOT(AU) -5.705913096608E+02 DETOT -9.77E-03 tst  3.75E-04 PX  3.97E-02
 TTTTTTTTTTTTTTTTTTTTTTTTTTTTTT DIIS        TELAPSE       12.55 TCPU       11.09
 DIIS TEST: 0.56705E-02 AT SCF   CYCLE   6 - DIIS ACTIVE - HISTORY:     6 CYCLES
 TTTTTTTTTTTTTTTTTTTTTTTTTTTTTT FDIK        TELAPSE       12.74 TCPU       11.27
 POSSIBLY CONDUCTING STATE - EFERMI(AU) -1.8296222E-01 (RES. CHARGE  3.01E-10;IT. 12)
 TTTTTTTTTTTTTTTTTTTTTTTTTTTTTT PDIG        TELAPSE       12.83 TCPU       11.36
 CHARGE NORMALIZATION FACTOR   1.00000000
 TOTAL ATOMIC CHARGES:
   5.9989070   6.0084721   6.0084720   5.9718498   6.0109824   5.9989017
   5.9718504   5.9616108   5.9896460   5.9896510   6.0291792   6.0530089
   5.9616093   6.0166797   6.0291796
 TTTTTTTTTTTTTTTTTTTTTTTTTTTTTT MOQGAD      TELAPSE       12.83 TCPU       11.36
 TTTTTTTTTTTTTTTTTTTTTTTTTTTTTT SHELLXN     TELAPSE       13.55 TCPU       12.08
 TTTTTTTTTTTTTTTTTTTTTTTTTTTTTT MONMO3      TELAPSE       13.67 TCPU       12.20
 NUMERICALLY INTEGRATED DENSITY     89.9998127376
 TTTTTTTTTTTTTTTTTTTTTTTTTTTTTT NUMDFT      TELAPSE       13.92 TCPU       12.46
 CYC   7 ETOT(AU) -5.705912936811E+02 DETOT  1.60E-05 tst  2.54E-05 PX  1.67E-02
 TTTTTTTTTTTTTTTTTTTTTTTTTTTTTT DIIS        TELAPSE       13.94 TCPU       12.47
 DIIS TEST: 0.56834E-02 AT SCF   CYCLE   7 - DIIS ACTIVE - HISTORY:     7 CYCLES
 TTTTTTTTTTTTTTTTTTTTTTTTTTTTTT FDIK        TELAPSE       14.12 TCPU       12.65
 POSSIBLY CONDUCTING STATE - EFERMI(AU) -1.8240254E-01 (RES. CHARGE  2.21E-12;IT. 14)
 TTTTTTTTTTTTTTTTTTTTTTTTTTTTTT PDIG        TELAPSE       14.21 TCPU       12.74
 CHARGE NORMALIZATION FACTOR   1.00000000
 TOTAL ATOMIC CHARGES:
   6.0099779   6.0214557   6.0214556   5.9761082   6.0030941   6.0099725
   5.9761087   5.9516251   5.9845146   5.9845196   6.0526632   6.0057605
   5.9516229   5.9984580   6.0526634
 TTTTTTTTTTTTTTTTTTTTTTTTTTTTTT MOQGAD      TELAPSE       14.21 TCPU       12.74
 TTTTTTTTTTTTTTTTTTTTTTTTTTTTTT SHELLXN     TELAPSE       14.94 TCPU       13.47
 TTTTTTTTTTTTTTTTTTTTTTTTTTTTTT MONMO3      TELAPSE       15.05 TCPU       13.58
 NUMERICALLY INTEGRATED DENSITY     89.9998128899
 TTTTTTTTTTTTTTTTTTTTTTTTTTTTTT NUMDFT      TELAPSE       15.40 TCPU       13.93
 CYC   8 ETOT(AU) -5.705918539676E+02 DETOT -5.60E-04 tst  1.16E-05 PX  1.02E-02
 TTTTTTTTTTTTTTTTTTTTTTTTTTTTTT DIIS        TELAPSE       15.42 TCPU       13.95
 DIIS TEST: 0.74732E-03 AT SCF   CYCLE   8 - DIIS ACTIVE - HISTORY:     8 CYCLES
 TTTTTTTTTTTTTTTTTTTTTTTTTTTTTT FDIK        TELAPSE       15.61 TCPU       14.13
 POSSIBLY CONDUCTING STATE - EFERMI(AU) -1.8225092E-01 (RES. CHARGE  1.42E-13;IT. 10)
 TTTTTTTTTTTTTTTTTTTTTTTTTTTTTT PDIG        TELAPSE       15.69 TCPU       14.22
 CHARGE NORMALIZATION FACTOR   1.00000000
 TOTAL ATOMIC CHARGES:
   6.0111638   6.0135467   6.0135466   5.9737301   6.0097655   6.0111584
   5.9737307   5.9687864   5.9866443   5.9866491   6.0440812   6.0052191
   5.9687854   5.9891106   6.0440820
 TTTTTTTTTTTTTTTTTTTTTTTTTTTTTT MOQGAD      TELAPSE       15.69 TCPU       14.22
 TTTTTTTTTTTTTTTTTTTTTTTTTTTTTT SHELLXN     TELAPSE       16.42 TCPU       14.94
 TTTTTTTTTTTTTTTTTTTTTTTTTTTTTT MONMO3      TELAPSE       16.54 TCPU       15.06
 NUMERICALLY INTEGRATED DENSITY     89.9998127533
 TTTTTTTTTTTTTTTTTTTTTTTTTTTTTT NUMDFT      TELAPSE       16.90 TCPU       15.43
 CYC   9 ETOT(AU) -5.705918782278E+02 DETOT -2.43E-05 tst  1.74E-05 PX  3.77E-03
 TTTTTTTTTTTTTTTTTTTTTTTTTTTTTT DIIS        TELAPSE       16.92 TCPU       15.44
 DIIS TEST: 0.64041E-03 AT SCF   CYCLE   9 - DIIS ACTIVE - HISTORY:     9 CYCLES
 TTTTTTTTTTTTTTTTTTTTTTTTTTTTTT FDIK        TELAPSE       17.08 TCPU       15.60
 POSSIBLY CONDUCTING STATE - EFERMI(AU) -1.8240540E-01 (RES. CHARGE  4.72E-10;IT. 10)
 TTTTTTTTTTTTTTTTTTTTTTTTTTTTTT PDIG        TELAPSE       17.17 TCPU       15.69
 CHARGE NORMALIZATION FACTOR   1.00000000
 TOTAL ATOMIC CHARGES:
   6.0085122   6.0100901   6.0100901   5.9734063   6.0113778   6.0085068
   5.9734067   5.9571972   5.9895004   5.9895056   6.0532166   6.0102011
   5.9571946   5.9945781   6.0532165
 TTTTTTTTTTTTTTTTTTTTTTTTTTTTTT MOQGAD      TELAPSE       17.17 TCPU       15.69
 TTTTTTTTTTTTTTTTTTTTTTTTTTTTTT SHELLXN     TELAPSE       17.89 TCPU       16.42
 TTTTTTTTTTTTTTTTTTTTTTTTTTTTTT MONMO3      TELAPSE       18.01 TCPU       16.53
 NUMERICALLY INTEGRATED DENSITY     89.9998127687
 TTTTTTTTTTTTTTTTTTTTTTTTTTTTTT NUMDFT      TELAPSE       18.37 TCPU       16.89
 CYC  10 ETOT(AU) -5.705919301564E+02 DETOT -5.19E-05 tst  6.17E-06 PX  1.93E-03
 TTTTTTTTTTTTTTTTTTTTTTTTTTTTTT DIIS        TELAPSE       18.39 TCPU       16.91
 DIIS TEST: 0.15453E-03 AT SCF   CYCLE  10 - DIIS ACTIVE - HISTORY:    10 CYCLES
 TTTTTTTTTTTTTTTTTTTTTTTTTTTTTT FDIK        TELAPSE       18.55 TCPU       17.07
 POSSIBLY CONDUCTING STATE - EFERMI(AU) -1.8242761E-01 (RES. CHARGE  3.36E-10;IT.  8)
 TTTTTTTTTTTTTTTTTTTTTTTTTTTTTT PDIG        TELAPSE       18.64 TCPU       17.16
 CHARGE NORMALIZATION FACTOR   1.00000000
 TOTAL ATOMIC CHARGES:
   6.0072064   6.0136373   6.0136372   5.9737086   6.0091423   6.0072011
   5.9737092   5.9613542   5.9859248   5.9859297   6.0504699   6.0104667
   5.9613528   5.9957893   6.0504706
 TTTTTTTTTTTTTTTTTTTTTTTTTTTTTT MOQGAD      TELAPSE       18.64 TCPU       17.16
 TTTTTTTTTTTTTTTTTTTTTTTTTTTTTT SHELLXN     TELAPSE       19.37 TCPU       17.88
 TTTTTTTTTTTTTTTTTTTTTTTTTTTTTT MONMO3      TELAPSE       19.48 TCPU       18.00
 NUMERICALLY INTEGRATED DENSITY     89.9998128138
 TTTTTTTTTTTTTTTTTTTTTTTTTTTTTT NUMDFT      TELAPSE       19.86 TCPU       18.38
 CYC  11 ETOT(AU) -5.705919513715E+02 DETOT -2.12E-05 tst  2.50E-07 PX  1.02E-03
 TTTTTTTTTTTTTTTTTTTTTTTTTTTTTT DIIS        TELAPSE       19.88 TCPU       18.40
 DIIS TEST: 0.56766E-05 AT SCF   CYCLE  11 - DIIS ACTIVE - HISTORY:    11 CYCLES
 TTTTTTTTTTTTTTTTTTTTTTTTTTTTTT FDIK        TELAPSE       20.07 TCPU       18.58
 POSSIBLY CONDUCTING STATE - EFERMI(AU) -1.8245636E-01 (RES. CHARGE  6.32E-13;IT. 10)
 TTTTTTTTTTTTTTTTTTTTTTTTTTTTTT PDIG        TELAPSE       20.15 TCPU       18.67
 CHARGE NORMALIZATION FACTOR   1.00000000
 TOTAL ATOMIC CHARGES:
   6.0075110   6.0128990   6.0128990   5.9734161   6.0078627   6.0075056
   5.9734165   5.9613186   5.9871251   5.9871304   6.0506548   6.0104971
   5.9613155   5.9957942   6.0506544
 TTTTTTTTTTTTTTTTTTTTTTTTTTTTTT MOQGAD      TELAPSE       20.15 TCPU       18.67
 TTTTTTTTTTTTTTTTTTTTTTTTTTTTTT SHELLXN     TELAPSE       20.88 TCPU       19.39
 TTTTTTTTTTTTTTTTTTTTTTTTTTTTTT MONMO3      TELAPSE       20.99 TCPU       19.51
 NUMERICALLY INTEGRATED DENSITY     89.9998128169
 TTTTTTTTTTTTTTTTTTTTTTTTTTTTTT NUMDFT      TELAPSE       21.25 TCPU       19.76
 CYC  12 ETOT(AU) -5.705919513712E+02 DETOT  2.96E-10 tst  1.65E-08 PX  1.97E-04
 TTTTTTTTTTTTTTTTTTTTTTTTTTTTTT DIIS        TELAPSE       21.27 TCPU       19.79
 DIIS TEST: 0.12200E-05 AT SCF   CYCLE  12 - DIIS ACTIVE - HISTORY:    12 CYCLES
 TTTTTTTTTTTTTTTTTTTTTTTTTTTTTT FDIK        TELAPSE       21.46 TCPU       19.97
 POSSIBLY CONDUCTING STATE - EFERMI(AU) -1.8245999E-01 (RES. CHARGE  2.49E-13;IT.  8)
 TTTTTTTTTTTTTTTTTTTTTTTTTTTTTT PDIG        TELAPSE       21.54 TCPU       20.05
 CHARGE NORMALIZATION FACTOR   1.00000000
 TOTAL ATOMIC CHARGES:
   6.0075581   6.0131528   6.0131524   5.9734775   6.0084130   6.0075529
   5.9734786   5.9612990   5.9865964   5.9866004   6.0504983   6.0100333
   5.9613009   5.9963855   6.0505010
 TTTTTTTTTTTTTTTTTTTTTTTTTTTTTT MOQGAD      TELAPSE       21.54 TCPU       20.05
 TTTTTTTTTTTTTTTTTTTTTTTTTTTTTT SHELLXN     TELAPSE       22.26 TCPU       20.78
 +++ ENERGIES IN A.U. +++
 ::: EXT EL-POLE                                  -7.9639237555689E+02
 ::: EXT EL-SPHEROPOLE                             6.1955619226438E+00
 ::: BIELET ZONE E-E                               1.1916649004208E+03
 ::: TOTAL E-E                                     4.0146808678659E+02
 ::: TOTAL E-N + N-E                              -1.5820484673164E+03
 ::: TOTAL N-N                                     1.2294889384076E+02
 ::: KINETIC ENERGY                                5.6734815234013E+02
 ::: PSEUDO TOTAL   ENERGY                        -4.9028333434889E+02
 ::: VIRIAL COEFFICIENT                            1.0728654724837E+00
 TTTTTTTTTTTTTTTTTTTTTTTTTTTTTT MONMO3      TELAPSE       22.38 TCPU       20.89
 NUMERICALLY INTEGRATED DENSITY     89.9998128251
 TTTTTTTTTTTTTTTTTTTTTTTTTTTTTT NUMDFT      TELAPSE       22.74 TCPU       21.25
 CYC  13 ETOT(AU) -5.705919515862E+02 DETOT -2.15E-07 tst  2.98E-09 PX  1.97E-04

 == SCF ENDED - CONVERGENCE ON ENERGY      E(AU) -5.7059195158624E+02 CYCLES  13


 ENERGY EXPRESSION=HARTREE+FOCK EXCH*0.00000+(PBE        EXCH)*1.00000+PBE        CORR


 TOTAL ENERGY(DFT)(AU)( 13) -5.7059195158624E+02 DE-2.2E-07 tester 3.0E-09
 TTTTTTTTTTTTTTTTTTTTTTTTTTTTTT EDFT        TELAPSE       22.74 TCPU       21.25

 *******************************************************************************
 *                             FORCE CALCULATION                               *
 *******************************************************************************

 TTTTTTTTTTTTTTTTTTTTTTTTTTTTTT NUMDFG      TELAPSE       23.37 TCPU       21.88
 INFORMATION **** EXCPOG **** EXCH. BIPO BUFFER LENGTH (WORDS) =           0
 INFORMATION **** GENPOG **** BIPO BUFFER LENGTH (WORDS) =     1106900
 TTTTTTTTTTTTTTTTTTTTTTTTTTTTTT SHELXG      TELAPSE       25.83 TCPU       24.34

 CARTESIAN FORCES IN HARTREE/BOHR (ANALYTICAL)
   ATOM                     X                   Y                   Z
   1   6            -3.434174742102E-02 -3.828770661778E-03 -2.469427326792E-09
   2   6            -7.249939052438E-02  6.257684425388E-04 -1.146816844735E-08
   3   6             7.249975222642E-02  6.257794610280E-04 -1.502964287828E-09
   4   6            -1.395336731479E-02 -4.350229555019E-03 -1.337511771327E-08
   5   6            -3.266417483716E-09 -1.141540937216E-02 -1.033835822921E-08
   6   6             3.434155350292E-02 -3.828618436440E-03  1.275760858691E-08
   7   6             1.395318104810E-02 -4.350113574839E-03  5.983146062936E-09
   8   6            -3.801228072495E-03  1.981547259765E-02  8.834562293135E-09
   9   6             2.748288230669E-02  2.407540563059E-02  1.778114757416E-08
  10   6            -2.748285499310E-02  2.407555796154E-02  3.201594013005E-09
  11   6            -1.058787278098E-01 -3.112535902312E-02 -4.678500323904E-10
  12   6            -1.023267944267E-07  2.645651035543E-02  1.189912462668E-08
  13   6             3.801730682842E-03  1.981535821085E-02 -1.299629295690E-08
  14   6             3.214897714710E-08 -2.546589742652E-02  1.216314436423E-09
  15   6             1.058782898129E-01 -3.112545460980E-02 -9.055373585043E-09

 RESULTANT FORCE     6.773748228994E-14 -4.273664755416E-14 -5.498553002135E-14

 SYMMETRY ALLOWED FORCES (ANALYTICAL) (DIRECTION, FORCE)

    1 -1.4341351E-02    2 -3.2766256E-02    3 -2.5560963E-09    4 -3.9207481E-02
    5 -6.7178182E-02    6 -1.2084123E-08    7  3.3111017E-02    8  5.8139737E-02
    9 -2.6802312E-09   10 -4.6522292E-03   11 -1.7593867E-02   12 -1.5313778E-08
   13  8.6382123E-03   14 -1.0304355E-02   15 -1.3590423E-08   16  2.0723732E-02
   17  2.3956105E-02   18  9.3205082E-09   19  1.2836293E-02   20  7.7792593E-03
   21  3.2352424E-09   22 -1.7308128E-02   23  5.3005112E-03   24  6.7167122E-09
   25 -7.0751567E-03   26  3.7684736E-02   27  1.7419208E-08   28 -3.8477557E-02
   29 -7.5558130E-03   30  4.6395839E-09   31 -3.7501758E-02   32 -1.1601867E-01
   33  1.5797434E-09   34 -4.4867378E-02   35 -1.0655927E-02   36  1.6319592E-08
   37 -5.4079910E-02   38 -1.5104163E-02   39 -7.4111463E-09   40 -4.0899374E-02
   41 -6.2835971E-02   42  7.2631803E-09
 TTTTTTTTTTTTTTTTTTTTTTTTTTTTTT TOTGRA      TELAPSE       26.31 TCPU       24.82
 INFORMATION **** opta001 **** GEOMETRY OUTPUT FILE
 CLASSICAL MODEL (SCHLEGEL) USED AS INITIAL HESSIAN MATRIX
 REFERENCE GEOMETRY DEFINED

 MAX GRADIENT      0.116019  THRESHOLD              0.000450 CONVERGED NO
 RMS GRADIENT      0.031866  THRESHOLD              0.000300 CONVERGED NO

 GRADIENT NORM     0.206517  GRADIENT THRESHOLD     0.500000

 EIGENVALUES OF THE ESTIMATED HESSIAN
  0.1367E-02  0.2281E-02  0.2822E-02  0.4079E-02  0.6031E-02  0.9186E-02
  0.1345E-01  0.2318E-01  0.2717E-01  0.3725E-01  0.3839E-01  0.5073E-01
  0.5666E-01  0.6739E-01  0.7484E-01  0.1047      0.1123      0.1327    
  0.1396      0.1585      0.1864      0.2590      0.3407      0.3770    
  0.3878      0.4065      0.4735      0.5299      0.5797      0.7046    
  0.7748      0.8986      0.9654       1.036       1.076       1.077    
   1.114       1.168       1.173       1.178       1.420       1.440    
 NEWTON STEP ( 0.1098212162E+01) EXCEEDS TRUST RADIUS ( 0.5000000000E+00)
 LEVEL SHIFT     0.1367240658E-02

 INITIAL TRUST RADIUS    0.5000000000E+00

 PREDICTED ENERGY CHANGE    -0.328E-01

 INITIAL DISPLACEMENTS
 -0.053359  0.004291  0.007330  0.098562  0.091482 -0.033990 -0.024120 -0.127326
  0.111940 -0.040845 -0.095336  0.034497  0.050803 -0.042453  0.022102 -0.027969
  0.028712 -0.004531  0.059317  0.071094 -0.056793 -0.089859 -0.027352  0.017589
  0.028494  0.017552  0.012517 -0.006252 -0.048395  0.049801 -0.120468 -0.263607
  0.110603  0.019623 -0.114491  0.036361 -0.061290 -0.019744 -0.040317 -0.128854
 -0.125750  0.061367
 TTTTTTTTTTTTTTTTTTTTTTTTTTTTTT OPTI        TELAPSE       26.32 TCPU       24.83

 OPTOPTOPTOPTOPTOPTOPTOPTOPTOPTOPTOPTOPTOPTOPTOPTOPTOPTOPTOPTOPTOPTOPTOPTOPTOPT

 - INFORMATION ON SCF MOVED TO SCFOUT.LOG
 GEOMETRY OPTIMIZATION INFORMATION STORED IN OPTINFO.DAT

 OPTOPTOPTOPTOPTOPTOPTOPTOPTOPTOPTOPTOPTOPTOPTOPTOPTOPTOPTOPTOPTOPTOPTOPTOPTOPT
 *******************************************************************************
 COORDINATE OPTIMIZATION - POINT    2
 *******************************************************************************
 LATTICE PARAMETERS (ANGSTROMS AND DEGREES) - BOHR = 0.5291772083 ANGSTROM
 PRIMITIVE CELL - CENTRING CODE 1/0 VOLUME=   412.228566 - DENSITY  0.725 g/cm^3
         A              B              C           ALPHA      BETA       GAMMA 
     7.40317242     7.40317242     8.68503800    90.000000  90.000000 120.000000
 *******************************************************************************
 ATOMS IN THE ASYMMETRIC UNIT   15 - ATOMS IN THE UNIT CELL:   15
     ATOM                 X/A                 Y/B                 Z/C    
 *******************************************************************************
      1 T   6 C     1.075974115910E-01 -4.441022596378E-01  3.004314729032E-01
      2 T   6 C     1.217889843622E-01 -1.038595353380E-01  2.979735214347E-01
      3 T   6 C     4.371884674328E-01  2.115412023313E-01  3.066755654368E-01
      4 T   6 C     4.378899095851E-01 -4.517209769422E-01  3.015890263547E-01
      5 T   6 C     4.468406377827E-01 -1.135098340468E-01  3.006776734805E-01
      6 T   6 C    -2.225697498697E-01  2.257466511630E-01  2.990033458150E-01
      7 T   6 C    -2.149477370060E-01 -1.045523347394E-01  2.960319167890E-01
      8 T   6 C     2.148234722934E-01  4.426676072066E-01  3.007046374961E-01
      9 T   6 C     2.254530946408E-01 -2.202443746478E-01  3.002650501731E-01
     10 T   6 C    -4.464271097958E-01  1.078777400639E-01  3.022112646649E-01
     11 T   6 C    -4.611818653972E-01  4.261262710774E-01  3.049148524546E-01
     12 T   6 C    -4.422688467751E-01 -2.243985783314E-01  2.992990530115E-01
     13 T   6 C    -1.093415781485E-01  1.185159544557E-01  2.947351551998E-01
     14 T   6 C    -1.131604669095E-01  4.465059471752E-01  3.003876744805E-01
     15 T   6 C    -9.279573489671E-02 -2.054823686780E-01  2.950997903055E-01

 T = ATOM BELONGING TO THE ASYMMETRIC UNIT

 TOTAL ENERGY(DFT)(AU)( 18) -5.7062764884590E+02     DE (AU)   -3.570E-02

 UPDATED TRUST RADIUS     0.100E+01

 SYMMETRY ALLOWED FORCES  (COORDINATE, FORCE)

    1 -1.0822024E-02    2 -1.9255464E-02    3 -8.4961358E-05    4 -2.7663861E-02
    5 -4.6406872E-02    6 -4.5299741E-05    7  2.2871830E-02    8  4.0733237E-02
    9 -3.6033722E-03   10  3.8538202E-03   11 -7.9412065E-03   12 -7.8557742E-04
   13  1.3258744E-02   14 -1.0264891E-02   15 -4.5010247E-04   16  1.2158169E-02
   17  1.5906140E-02   18 -1.1050766E-03   19  9.8986665E-03   20 -2.4637354E-03
   21 -5.2664458E-04   22 -8.6492403E-03   23 -3.0909540E-04   24 -1.6734914E-03
   25  1.3189682E-03   26  1.8719513E-02   27 -1.4415902E-03   28 -1.6171704E-02
   29 -8.5341654E-03   30 -7.2643496E-04   31 -3.5694545E-02   32 -7.8939032E-02
   33  3.0590234E-04   34 -1.9248696E-02   35 -1.5684479E-02   36 -1.4638741E-03
   37 -2.6324341E-02   38 -1.6777799E-02   39  2.3384971E-03   40 -2.8791962E-02
   41 -4.5852952E-02   42 -1.0768748E-03

 GRADIENT NORM     0.138824  GRADIENT THRESHOLD     0.500000

 EIGENVALUES OF THE ESTIMATED HESSIAN
  0.1492E-02  0.2272E-02  0.2818E-02  0.4058E-02  0.6000E-02  0.9182E-02
  0.1336E-01  0.2165E-01  0.2396E-01  0.2760E-01  0.3840E-01  0.5082E-01
  0.5670E-01  0.6740E-01  0.7484E-01  0.1047      0.1123      0.1280    
  0.1396      0.1597      0.1864      0.2569      0.3407      0.3788    
  0.3878      0.4314      0.5140      0.5299      0.5541      0.7046    
  0.7748      0.9175      0.9327       1.036       1.077       1.081    
   1.143       1.168       1.178       1.202       1.420       1.441    
 NEWTON STEP ( 0.8251116234E+01) EXCEEDS TRUST RADIUS ( 0.1000000000E+01)
 LEVEL SHIFT    -0.9105967385E-02

 PREDICTED ENERGY CHANGE    -0.448E-01

 MAX GRADIENT      0.078939  THRESHOLD              0.000450 CONVERGED NO
 RMS GRADIENT      0.021421  THRESHOLD              0.000300 CONVERGED NO
 MAX DISPLAC.      0.444295  THRESHOLD              0.001800 CONVERGED NO
 RMS DISPLAC.      0.154303  THRESHOLD              0.001200 CONVERGED NO
 TTTTTTTTTTTTTTTTTTTTTTTTTTTTTT OPTI        TELAPSE       58.18 TCPU       56.52
 *******************************************************************************
 COORDINATE OPTIMIZATION - POINT    3
 *******************************************************************************
 LATTICE PARAMETERS (ANGSTROMS AND DEGREES) - BOHR = 0.5291772083 ANGSTROM
 PRIMITIVE CELL - CENTRING CODE 1/0 VOLUME=   412.228566 - DENSITY  0.725 g/cm^3
         A              B              C           ALPHA      BETA       GAMMA 
     7.40317242     7.40317242     8.68503800    90.000000  90.000000 120.000000
 *******************************************************************************
 ATOMS IN THE ASYMMETRIC UNIT   15 - ATOMS IN THE UNIT CELL:   15
     ATOM                 X/A                 Y/B                 Z/C    
 *******************************************************************************
      1 T   6 C     1.004533262049E-01 -4.437608964250E-01  2.963011546969E-01
      2 T   6 C     1.395221824023E-01 -9.276692622860E-02  2.979522608569E-01
      3 T   6 C     4.261463948278E-01  1.937889085609E-01  2.839473394751E-01
      4 T   6 C     4.272640020292E-01 -4.636405051965E-01  3.002494338116E-01
      5 T   6 C     4.528769697100E-01 -1.195224634880E-01  2.981685738377E-01
      6 T   6 C    -2.229698543774E-01  2.328751886699E-01  3.016565438166E-01
      7 T   6 C    -2.030470536565E-01 -9.387501662959E-02  3.038082244443E-01
      8 T   6 C     2.018757077645E-01  4.388529370269E-01  2.953152931626E-01
      9 T   6 C     2.315865643608E-01 -2.187011535002E-01  2.964463938331E-01
     10 T   6 C    -4.479487136228E-01  1.017497226471E-01  2.974052178708E-01
     11 T   6 C    -4.918462800956E-01  3.962954715460E-01  3.119121945937E-01
     12 T   6 C    -4.370492059584E-01 -2.296096030215E-01  2.994976970842E-01
     13 T   6 C    -1.056276794217E-01  1.314924387048E-01  3.168706518325E-01
     14 T   6 C    -1.194288092357E-01  4.527040423954E-01  2.966905034635E-01
     15 T   6 C    -6.291866204173E-02 -1.747710339496E-01  3.037785172205E-01

 T = ATOM BELONGING TO THE ASYMMETRIC UNIT

 TOTAL ENERGY(DFT)(AU)( 18) -5.7065315029109E+02     DE (AU)   -2.550E-02

 UPDATED TRUST RADIUS     0.100E+01

 SYMMETRY ALLOWED FORCES  (COORDINATE, FORCE)

    1 -3.9045823E-03    2  3.3736306E-03    3 -1.8623057E-03    4  1.2586248E-02
    5 -6.9670019E-03    6 -2.1555934E-03    7  1.1766456E-02    8  8.0339129E-03
    9  2.8762505E-02   10  7.8897300E-03   11 -3.1333524E-03   12  1.1061440E-02
   13  3.6810074E-03   14 -1.2971121E-03   15 -2.8086004E-04   16  2.0531224E-05
   17  9.1398721E-04   18  1.1299022E-02   19  8.7465954E-03   20 -4.3134534E-03
   21  1.1701600E-02   22  7.1524595E-03   23 -6.1756427E-03   24  1.4396288E-02
   25  1.2777955E-02   26 -5.4235690E-03   27  9.5801196E-03   28  1.3861230E-02
   29 -5.1566201E-03   30  2.6581116E-04   31 -2.1542757E-02   32 -1.2618996E-02
   33 -1.9988861E-02   34  1.2518582E-02   35 -1.0265289E-02   36  9.8331298E-03
   37  1.4043499E-02   38 -9.6580985E-03   39 -1.3534938E-02   40  1.2367012E-02
   41 -1.5369795E-02   42  4.3714282E-03

 GRADIENT NORM     0.070041  GRADIENT THRESHOLD     0.500000

 EIGENVALUES OF THE ESTIMATED HESSIAN
  0.1736E-02  0.2529E-02  0.2950E-02  0.4545E-02  0.6383E-02  0.9213E-02
  0.1209E-01  0.2024E-01  0.2656E-01  0.3814E-01  0.4470E-01  0.5399E-01
  0.6433E-01  0.7261E-01  0.7507E-01  0.1047      0.1123      0.1214    
  0.1397      0.1574      0.1868      0.2513      0.3407      0.3778    
  0.3877      0.4165      0.5244      0.5301      0.5392      0.7051    
  0.7754      0.9164      0.9755       1.037       1.078       1.081    
   1.144       1.168       1.178       1.248       1.420       1.443    
 NEWTON STEP ( 0.6628149521E+01) EXCEEDS TRUST RADIUS ( 0.1000000000E+01)
 LEVEL SHIFT     0.7316733105E-03

 PREDICTED ENERGY CHANGE    -0.344E-01

 MAX GRADIENT      0.028763  THRESHOLD              0.000450 CONVERGED NO
 RMS GRADIENT      0.010808  THRESHOLD              0.000300 CONVERGED NO
 MAX DISPLAC.      0.410735  THRESHOLD              0.001800 CONVERGED NO
 RMS DISPLAC.      0.154303  THRESHOLD              0.001200 CONVERGED NO
 TTTTTTTTTTTTTTTTTTTTTTTTTTTTTT OPTI        TELAPSE       89.60 TCPU       87.75
 *******************************************************************************
 COORDINATE OPTIMIZATION - POINT    4
 *******************************************************************************
 LATTICE PARAMETERS (ANGSTROMS AND DEGREES) - BOHR = 0.5291772083 ANGSTROM
 PRIMITIVE CELL - CENTRING CODE 1/0 VOLUME=   412.228566 - DENSITY  0.725 g/cm^3
         A              B              C           ALPHA      BETA       GAMMA 
     7.40317242     7.40317242     8.68503800    90.000000  90.000000 120.000000
 *******************************************************************************
 ATOMS IN THE ASYMMETRIC UNIT   15 - ATOMS IN THE UNIT CELL:   15
     ATOM                 X/A                 Y/B                 Z/C    
 *******************************************************************************
      1 T   6 C     9.451859552619E-02 -4.434933492568E-01  3.051646256762E-01
      2 T   6 C     1.540911259062E-01 -8.398631596535E-02  2.958369675005E-01
      3 T   6 C     4.174773814637E-01  1.794137503045E-01  3.074724437806E-01
      4 T   6 C     4.189059888658E-01 -4.729881281378E-01  2.958049047557E-01
      5 T   6 C     4.583531790688E-01 -1.249719056145E-01  3.046172409005E-01
      6 T   6 C    -2.233447435241E-01  2.388195942275E-01  3.010543681727E-01
      7 T   6 C    -1.938159680666E-01 -8.541183140399E-02  2.900346885865E-01
      8 T   6 C     1.914604835506E-01  4.353753541531E-01  3.041735666756E-01
      9 T   6 C     2.368593064112E-01 -2.181771947870E-01  3.039623032490E-01
     10 T   6 C    -4.484873811023E-01  9.656302298662E-02  3.084875077149E-01
     11 T   6 C     4.831031318494E-01  3.733351764389E-01  2.901044704886E-01
     12 T   6 C    -4.323855858954E-01 -2.342823163519E-01  2.950399992289E-01
     13 T   6 C    -1.023740084722E-01  1.419735652837E-01  3.013253719009E-01
     14 T   6 C    -1.253703101872E-01  4.585681950017E-01  3.056985969132E-01
     15 T   6 C    -4.010230650470E-02 -1.496265057671E-01  2.912229444563E-01

 T = ATOM BELONGING TO THE ASYMMETRIC UNIT

 TOTAL ENERGY(DFT)(AU)( 18) -5.7066118078145E+02     DE (AU)   -8.030E-03

 UPDATED TRUST RADIUS     0.250E+00

 SYMMETRY ALLOWED FORCES  (COORDINATE, FORCE)

    1  2.5336903E-03    2  1.9098126E-02    3  4.0851570E-04    4  5.0727459E-02
    5  1.7405264E-02    6  7.2906632E-03    7  1.2184416E-02    8 -4.1673703E-02
    9 -8.1597112E-03   10  1.0313246E-02   11 -8.4485183E-03   12 -3.5887163E-03
   13 -6.2475791E-03   14  5.8641812E-03   15  2.9167487E-04   16 -1.0251828E-02
   17 -1.2425073E-02   18  1.0169310E-02   19  1.4102011E-02   20 -3.0452905E-03
   21  1.2740613E-02   22  1.8997895E-02   23 -1.3028081E-02   24 -3.2602846E-03
   25  1.4600395E-02   26 -2.7153087E-02   27  1.3579253E-05   28  3.5626435E-02
   29 -4.2240444E-03   30 -5.5823993E-03   31 -1.7571904E-02   32  5.6876939E-02
   33  1.1909571E-02   34  2.6767313E-02   35 -2.6482519E-03   36  5.2895952E-03
   37  4.4815452E-02   38 -4.8834309E-03   39 -4.6921162E-03   40  5.0939228E-02
   41  3.8527271E-03   42 -1.4577368E-03

 GRADIENT NORM     0.134770  GRADIENT THRESHOLD     0.500000

 EIGENVALUES OF THE ESTIMATED HESSIAN
  0.1735E-02  0.2755E-02  0.2902E-02  0.5054E-02  0.9018E-02  0.1036E-01
  0.2003E-01  0.2314E-01  0.3358E-01  0.3840E-01  0.5078E-01  0.5599E-01
  0.6672E-01  0.7476E-01  0.9998E-01  0.1048      0.1123      0.1228    
  0.1399      0.1586      0.1895      0.2508      0.3408      0.3792    
  0.3881      0.4321      0.5253      0.5303      0.5448      0.7056    
  0.7770      0.9161       1.036       1.061       1.078       1.081    
   1.149       1.168       1.178       1.372       1.420       1.449    
 NEWTON STEP ( 0.1642154691E+01) EXCEEDS TRUST RADIUS ( 0.2500000000E+00)
 LEVEL SHIFT     0.6200618904E-03

 PREDICTED ENERGY CHANGE    -0.451E-02

 MAX GRADIENT      0.056877  THRESHOLD              0.000450 CONVERGED NO
 RMS GRADIENT      0.020796  THRESHOLD              0.000300 CONVERGED NO
 MAX DISPLAC.      0.153443  THRESHOLD              0.001800 CONVERGED NO
 RMS DISPLAC.      0.038576  THRESHOLD              0.001200 CONVERGED NO
 TTTTTTTTTTTTTTTTTTTTTTTTTTTTTT OPTI        TELAPSE      121.22 TCPU      119.18
 *******************************************************************************
 COORDINATE OPTIMIZATION - POINT    5
 *******************************************************************************
 LATTICE PARAMETERS (ANGSTROMS AND DEGREES) - BOHR = 0.5291772083 ANGSTROM
 PRIMITIVE CELL - CENTRING CODE 1/0 VOLUME=   412.228566 - DENSITY  0.725 g/cm^3
         A              B              C           ALPHA      BETA       GAMMA 
     7.40317242     7.40317242     8.68503800    90.000000  90.000000 120.000000
 *******************************************************************************
 ATOMS IN THE ASYMMETRIC UNIT   15 - ATOMS IN THE UNIT CELL:   15
     ATOM                 X/A                 Y/B                 Z/C    
 *******************************************************************************
      1 T   6 C     9.421235141478E-02 -4.436483657323E-01  3.036834205579E-01
      2 T   6 C     1.553527776505E-01 -8.367746826447E-02  3.018964786342E-01
      3 T   6 C     4.171589651550E-01  1.782662954905E-01  3.070399045476E-01
      4 T   6 C     4.179937422484E-01 -4.735921386492E-01  2.980467488193E-01
      5 T   6 C     4.587049529130E-01 -1.253132157964E-01  3.034007444099E-01
      6 T   6 C    -2.231952248280E-01  2.391442163844E-01  2.980362230304E-01
      7 T   6 C    -1.932493016489E-01 -8.448331861905E-02  2.927214423169E-01
      8 T   6 C     1.906169458458E-01  4.347395305956E-01  3.025333305509E-01
      9 T   6 C     2.372470731460E-01 -2.185307833248E-01  3.033999015259E-01
     10 T   6 C    -4.481507113156E-01  9.621161659612E-02  3.053995359312E-01
     11 T   6 C     4.810322367446E-01  3.723739549066E-01  2.939916881653E-01
     12 T   6 C    -4.321807178528E-01 -2.344902438862E-01  2.976029044579E-01
     13 T   6 C    -1.017613213751E-01  1.428167423321E-01  2.916920078103E-01
     14 T   6 C    -1.256420283058E-01  4.588539439066E-01  3.038349313276E-01
     15 T   6 C    -3.925085090243E-02 -1.475596548278E-01  2.967207379146E-01

 T = ATOM BELONGING TO THE ASYMMETRIC UNIT

 TOTAL ENERGY(DFT)(AU)( 14) -5.7066436448682E+02     DE (AU)   -3.184E-03

 UPDATED TRUST RADIUS     0.250E+00

 SYMMETRY ALLOWED FORCES  (COORDINATE, FORCE)

    1  2.3431965E-03    2  1.9106161E-02    3  1.0980705E-04    4  4.1834263E-02
    5  1.7528253E-02    6  2.1083999E-03    7  1.0159269E-02    8 -4.1859362E-02
    9 -5.4767073E-03   10  9.9824799E-03   11 -7.8206756E-03   12 -4.0875256E-03
   13 -7.8330388E-03   14  6.1465664E-03   15 -5.4033967E-04   16 -1.1364575E-02
   17 -1.2607216E-02   18  3.6791940E-03   19  1.3259348E-02   20 -4.3882328E-03
   21  4.0658852E-03   22  1.6949174E-02   23 -1.2883003E-02   24 -6.0233847E-03
   25  1.2167565E-02   26 -2.7578059E-02   27  8.9353505E-04   28  3.2900192E-02
   29 -2.7384753E-03   30 -5.6241664E-03   31 -1.6980687E-02   32  5.5518640E-02
   33  6.4133098E-03   34  2.5105319E-02   35 -3.4634528E-03   36 -8.7456320E-04
   37  3.9757530E-02   38 -3.5058450E-03   39  5.4466004E-03   40  4.4604603E-02
   41  3.6913300E-03   42 -1.0302476E-03

 GRADIENT NORM     0.123734  GRADIENT THRESHOLD     0.500000

 EIGENVALUES OF THE ESTIMATED HESSIAN
  0.1746E-02  0.2602E-02  0.4478E-02  0.5784E-02  0.9724E-02  0.1247E-01
  0.2146E-01  0.2804E-01  0.3776E-01  0.4452E-01  0.5493E-01  0.6384E-01
  0.7474E-01  0.9016E-01  0.1048      0.1122      0.1144      0.1260    
  0.1404      0.1522      0.1909      0.2497      0.3410      0.3793    
  0.3913      0.4310      0.5165      0.5309      0.5445      0.7074    
  0.7828      0.8868      0.9317       1.037       1.078       1.084    
   1.144       1.169       1.178       1.183       1.421       1.443    
 NEWTON STEP ( 0.1809148916E+01) EXCEEDS TRUST RADIUS ( 0.2500000000E+00)
 LEVEL SHIFT    -0.2008127037E-02

 PREDICTED ENERGY CHANGE    -0.680E-02

 MAX GRADIENT      0.055519  THRESHOLD              0.000450 CONVERGED NO
 RMS GRADIENT      0.019093  THRESHOLD              0.000300 CONVERGED NO
 MAX DISPLAC.      0.134093  THRESHOLD              0.001800 CONVERGED NO
 RMS DISPLAC.      0.038576  THRESHOLD              0.001200 CONVERGED NO
 TTTTTTTTTTTTTTTTTTTTTTTTTTTTTT OPTI        TELAPSE      147.35 TCPU      145.12
 *******************************************************************************
 COORDINATE OPTIMIZATION - POINT    6
 *******************************************************************************
 LATTICE PARAMETERS (ANGSTROMS AND DEGREES) - BOHR = 0.5291772083 ANGSTROM
 PRIMITIVE CELL - CENTRING CODE 1/0 VOLUME=   412.228566 - DENSITY  0.725 g/cm^3
         A              B              C           ALPHA      BETA       GAMMA 
     7.40317242     7.40317242     8.68503800    90.000000  90.000000 120.000000
 *******************************************************************************
 ATOMS IN THE ASYMMETRIC UNIT   15 - ATOMS IN THE UNIT CELL:   15
     ATOM                 X/A                 Y/B                 Z/C    
 *******************************************************************************
      1 T   6 C     9.440447879146E-02 -4.440603997305E-01  3.000574767237E-01
      2 T   6 C     1.563514923472E-01 -8.413883001973E-02  3.040005748287E-01
      3 T   6 C     4.176761378920E-01  1.773327848768E-01  3.086143905467E-01
      4 T   6 C     4.168175017362E-01 -4.737359988414E-01  2.958464251735E-01
      5 T   6 C     4.586602184645E-01 -1.252496083058E-01  3.008636733653E-01
      6 T   6 C    -2.227291647648E-01  2.389536848030E-01  3.015365617783E-01
      7 T   6 C    -1.931363160762E-01 -8.335753932229E-02  2.999029377627E-01
      8 T   6 C     1.900230941117E-01  4.335609354039E-01  2.976108896148E-01
      9 T   6 C     2.373289341140E-01 -2.195339207728E-01  3.011636195473E-01
     10 T   6 C    -4.470912921187E-01  9.615555974285E-02  3.019281844402E-01
     11 T   6 C     4.794838703333E-01  3.736192137602E-01  2.932834322843E-01
     12 T   6 C    -4.324147327941E-01 -2.342715869039E-01  2.988323386661E-01
     13 T   6 C    -1.005594799610E-01  1.433852138882E-01  2.997336130738E-01
     14 T   6 C    -1.252990333860E-01  4.585207849400E-01  3.004066812635E-01
     15 T   6 C    -4.062681980005E-02 -1.460691824067E-01  2.962192009311E-01

 T = ATOM BELONGING TO THE ASYMMETRIC UNIT

 TOTAL ENERGY(DFT)(AU)( 15) -5.7066852841025E+02     DE (AU)   -4.164E-03

 UPDATED TRUST RADIUS     0.250E+00

 SYMMETRY ALLOWED FORCES  (COORDINATE, FORCE)

    1  1.5815094E-03    2  1.6817717E-02    3 -5.4234189E-04    4  1.6917140E-02
    5  1.3412850E-02    6 -2.9232451E-03    7 -2.8991595E-04    8 -1.9530024E-02
    9 -1.2558943E-02   10  7.9902006E-03   11 -4.0552647E-03   12 -2.1750866E-03
   13 -7.1829783E-03   14  5.6167769E-03   15 -6.5408354E-04   16 -1.2807674E-02
[...]
   8 C    1     2.4150     4.5637   11 C    0 0 0
   8 C    1     2.4327     4.5972   14 C   -1 0 0
   8 C    1     2.4389     4.6088    9 C    0 0 0

   9 C    1     1.4326     2.7073    5 C    0 0 0
   9 C    1     1.4344     2.7105    2 C    0 0 0
   9 C    1     1.4377     2.7168    1 C    0 0 0
   9 C    1     2.3342     4.4110   10 C    0 1 0
   9 C    1     2.3681     4.4751   15 C   -1 0 0
   9 C    1     2.4352     4.6018    3 C    0 1 0

  10 C    1     1.4326     2.7073    5 C    0-1 0
  10 C    1     1.4344     2.7106    3 C    0 0 0
  10 C    1     1.4377     2.7168    6 C    0 0 0
  10 C    1     2.3342     4.4110    9 C    0-1 0
  10 C    1     2.3680     4.4749   11 C    0 0 0
  10 C    1     2.4351     4.6016    2 C    0-1 0

  11 C    1     1.3500     2.5511    3 C    0 0 0
  11 C    1     1.4041     2.6534    4 C    0 0 0
  11 C    1     2.3680     4.4749   10 C    0 0 0
  11 C    1     2.4150     4.5637    8 C    0 0 0
  11 C    1     2.6534     5.0143   12 C    0 0 0
  11 C    1     2.6717     5.0487   14 C    0 0 0

  12 C    1     1.4044     2.6540    5 C    0 0 0
  12 C    1     1.6014     3.0262    4 C    0 0 0
  12 C    1     1.6014     3.0262    7 C    0 0 0
  12 C    1     2.5216     4.7651    9 C    0 0 0
  12 C    1     2.5216     4.7652   10 C    0 1 0
  12 C    1     2.6534     5.0143   11 C    0 0 0

  13 C    1     1.4274     2.6973    6 C    0 0 0
  13 C    1     1.4951     2.8253    7 C    0-1 0
  13 C    1     1.9932     3.7666    8 C    1 0 0
  13 C    1     2.4150     4.5637   15 C    0-1 0
  13 C    1     2.4327     4.5971   14 C    0 0 0
  13 C    1     2.4389     4.6089   10 C    0 0 0

  14 C    1     1.4261     2.6950    6 C    0 0 0
  14 C    1     1.4262     2.6951    1 C    1 0 0
  14 C    1     2.4327     4.5971   13 C    0 0 0
  14 C    1     2.4327     4.5972    8 C    1 0 0
  14 C    1     2.5554     4.8290   10 C    0 0 0
  14 C    1     2.5554     4.8290    9 C    1 0 0

  15 C    1     1.3500     2.5512    2 C    1 0 0
  15 C    1     1.4041     2.6534    7 C    0 0 0
  15 C    1     2.3681     4.4751    9 C    1 0 0
  15 C    1     2.4150     4.5637   13 C    0 1 0
  15 C    1     2.6534     5.0143   12 C    0 0 0
  15 C    1     2.6718     5.0489   14 C    0 0 0


 FINAL OPTIMIZED GEOMETRY - DIMENSIONALITY OF THE SYSTEM      3
 (NON PERIODIC DIRECTION: LATTICE PARAMETER FORMALLY SET TO 500)
 *******************************************************************************
 LATTICE PARAMETERS (ANGSTROMS AND DEGREES) - BOHR = 0.5291772083 ANGSTROM
 PRIMITIVE CELL - CENTRING CODE 1/0 VOLUME=   412.228566 - DENSITY  0.725 g/cm^3
         A              B              C           ALPHA      BETA       GAMMA 
     7.40317242     7.40317242     8.68503800    90.000000  90.000000 120.000000
 *******************************************************************************
 ATOMS IN THE ASYMMETRIC UNIT   15 - ATOMS IN THE UNIT CELL:   15
     ATOM                 X/A                 Y/B                 Z/C    
 *******************************************************************************
      1 T   6 C     9.249850725739E-02 -4.408444391722E-01  3.000022513987E-01
      2 T   6 C     1.753618478672E-01 -6.612064423655E-02  2.999942019987E-01
      3 T   6 C     3.994507583025E-01  1.579794665196E-01  2.999997870127E-01
      4 T   6 C     4.100212201350E-01 -4.831194513040E-01  3.000034423580E-01
      5 T   6 C     4.609161119152E-01 -1.275862769606E-01  2.999992042876E-01
      6 T   6 C    -2.258291893486E-01  2.408344800263E-01  2.999999519345E-01
      7 T   6 C    -1.835471126820E-01 -7.668351952820E-02  2.999997008271E-01
      8 T   6 C     1.783659471936E-01  4.242026275273E-01  3.000030782506E-01
      9 T   6 C     2.384737287439E-01 -2.204450096045E-01  2.999982344553E-01
     10 T   6 C    -4.462301644362E-01  9.485955412080E-02  3.000013441746E-01
     11 T   6 C     4.710948750114E-01  3.652734299571E-01  3.000008816084E-01
     12 T   6 C    -4.295544837407E-01 -2.371130691957E-01  3.000001951148E-01
     13 T   6 C    -9.087358514939E-02  1.549712274790E-01  3.000004764340E-01
     14 T   6 C    -1.293236610195E-01  4.626536411675E-01  3.000021998116E-01
     15 T   6 C    -3.193591116038E-02 -1.377509056839E-01  2.999950503334E-01

 T = ATOM BELONGING TO THE ASYMMETRIC UNIT
 INFORMATION **** fort.34 **** GEOMETRY OUTPUT FILE

 DIRECT LATTICE VECTORS CARTESIAN COMPONENTS (ANGSTROM)
          X                    Y                    Z
   0.370158621205E+01  -0.641133538787E+01   0.000000000000E+00
   0.370158621205E+01   0.641133538787E+01   0.000000000000E+00
   0.000000000000E+00   0.000000000000E+00   0.868503800000E+01


 CARTESIAN COORDINATES - PRIMITIVE CELL
 *******************************************************************************
 *      ATOM          X(ANGSTROM)         Y(ANGSTROM)         Z(ANGSTROM)
 *******************************************************************************
    1     6 C     2.412153713450E+00  2.991894881553E+00  2.605530953483E+00
    2     6 C     4.105951945196E+00  4.863110140691E+00  2.605461044138E+00
    3     6 C     2.063376034381E+00 -1.548153438162E+00  2.605509550197E+00
    4     6 C     3.431006807429E+00  6.851109947261E-01  2.605541297010E+00
    5     6 C     4.935435333181E+00  2.638249196223E+00  2.605504489207E+00
    6     6 C     3.757129589129E+00 -3.419398090171E+00  2.605510982549E+00
    7     6 C     6.439906303956E+00  6.851383364614E-01  2.605508801672E+00
    8     6 C     2.230459528001E+00  1.576141408259E+00  2.605538134723E+00
    9     6 C     3.768321070236E+00  3.469053440538E+00  2.605496066178E+00
   10     6 C     2.400957605586E+00 -2.942227727271E+00  2.605523074207E+00
   11     6 C     3.095889385866E+00 -6.784567754717E-01  2.605519056803E+00
   12     6 C     4.935445002128E+00  1.233806451163E+00  2.605513094580E+00
   13     6 C     3.938849161121E+00 -4.835141840738E+00  2.605515537847E+00
   14     6 C     4.935435870628E+00 -2.615970361541E+00  2.605530505448E+00
   15     6 C     6.775062042501E+00 -6.784154189555E-01  2.605468411958E+00

 ****    1 SYMMOPS - TRANSLATORS IN FRACTIONAL UNITS
 **** MATRICES AND TRANSLATORS IN THE CRYSTALLOGRAPHIC REFERENCE FRAME
   V INV                    ROTATION MATRICES                   TRANSLATORS
   1   1  1.00  0.00  0.00  0.00  1.00  0.00  0.00  0.00  1.00  0.00  0.00  0.00
 TTTTTTTTTTTTTTTTTTTTTTTTTTTTTT END         TELAPSE      855.65 TCPU      848.14
 EEEEEEEEEE TERMINATION  DATE 31 10 2022 TIME 20:22:11.1
NODE    0 CPU TIME =       848.144
    TOTAL CPU TIME =    108576.680
Note: The following floating-point exceptions are signalling: IEEE_UNDERFLOW_FLAG IEEE_DENORMAL
Note: The following floating-point exceptions are signalling: IEEE_UNDERFLOW_FLAG IEEE_DENORMAL
Note: The following floating-point exceptions are signalling: IEEE_UNDERFLOW_FLAG IEEE_DENORMAL
Note: The following floating-point exceptions are signalling: IEEE_UNDERFLOW_FLAG IEEE_DENORMAL
Note: The following floating-point exceptions are signalling: IEEE_UNDERFLOW_FLAG IEEE_DENORMAL
Note: The following floating-point exceptions are signalling: IEEE_UNDERFLOW_FLAG IEEE_DENORMAL
Note: The following floating-point exceptions are signalling: IEEE_UNDERFLOW_FLAG IEEE_DENORMAL
Note: The following floating-point exceptions are signalling: IEEE_UNDERFLOW_FLAG IEEE_DENORMAL
Note: The following floating-point exceptions are signalling: IEEE_UNDERFLOW_FLAG IEEE_DENORMAL
Note: The following floating-point exceptions are signalling: IEEE_UNDERFLOW_FLAG IEEE_DENORMAL
Note: The following floating-point exceptions are signalling: IEEE_UNDERFLOW_FLAG IEEE_DENORMAL
Note: The following floating-point exceptions are signalling: IEEE_UNDERFLOW_FLAG IEEE_DENORMAL
Note: The following floating-point exceptions are signalling: IEEE_UNDERFLOW_FLAG IEEE_DENORMAL
Note: The following floating-point exceptions are signalling: IEEE_UNDERFLOW_FLAG IEEE_DENORMAL
Note: The following floating-point exceptions are signalling: IEEE_UNDERFLOW_FLAG IEEE_DENORMAL
Note: The following floating-point exceptions are signalling: IEEE_UNDERFLOW_FLAG IEEE_DENORMAL
Note: The following floating-point exceptions are signalling: IEEE_UNDERFLOW_FLAG IEEE_DENORMAL
Note: The following floating-point exceptions are signalling: IEEE_UNDERFLOW_FLAG IEEE_DENORMAL
Note: The following floating-point exceptions are signalling: IEEE_UNDERFLOW_FLAG IEEE_DENORMAL
Note: The following floating-point exceptions are signalling: IEEE_UNDERFLOW_FLAG IEEE_DENORMAL
Note: The following floating-point exceptions are signalling: IEEE_UNDERFLOW_FLAG IEEE_DENORMAL
Note: The following floating-point exceptions are signalling: IEEE_UNDERFLOW_FLAG IEEE_DENORMAL
Note: The following floating-point exceptions are signalling: IEEE_UNDERFLOW_FLAG IEEE_DENORMAL
Note: The following floating-point exceptions are signalling: IEEE_UNDERFLOW_FLAG IEEE_DENORMAL
Note: The following floating-point exceptions are signalling: IEEE_UNDERFLOW_FLAG IEEE_DENORMAL
Note: The following floating-point exceptions are signalling: IEEE_UNDERFLOW_FLAG IEEE_DENORMAL
Note: The following floating-point exceptions are signalling: IEEE_UNDERFLOW_FLAG IEEE_DENORMAL
Note: The following floating-point exceptions are signalling: IEEE_UNDERFLOW_FLAG IEEE_DENORMAL
Note: The following floating-point exceptions are signalling: IEEE_UNDERFLOW_FLAG IEEE_DENORMAL
Note: The following floating-point exceptions are signalling: IEEE_UNDERFLOW_FLAG IEEE_DENORMAL
Note: The following floating-point exceptions are signalling: IEEE_UNDERFLOW_FLAG IEEE_DENORMAL
Note: The following floating-point exceptions are signalling: IEEE_UNDERFLOW_FLAG IEEE_DENORMAL
Note: The following floating-point exceptions are signalling: IEEE_UNDERFLOW_FLAG IEEE_DENORMAL
Note: The following floating-point exceptions are signalling: IEEE_UNDERFLOW_FLAG IEEE_DENORMAL
Note: The following floating-point exceptions are signalling: IEEE_UNDERFLOW_FLAG IEEE_DENORMAL
Note: The following floating-point exceptions are signalling: IEEE_UNDERFLOW_FLAG IEEE_DENORMAL
Note: The following floating-point exceptions are signalling: IEEE_UNDERFLOW_FLAG IEEE_DENORMAL
Note: The following floating-point exceptions are signalling: IEEE_UNDERFLOW_FLAG IEEE_DENORMAL
Note: The following floating-point exceptions are signalling: IEEE_UNDERFLOW_FLAG IEEE_DENORMAL
Note: The following floating-point exceptions are signalling: IEEE_UNDERFLOW_FLAG IEEE_DENORMAL
Note: The following floating-point exceptions are signalling: IEEE_UNDERFLOW_FLAG IEEE_DENORMAL
Note: The following floating-point exceptions are signalling: IEEE_UNDERFLOW_FLAG IEEE_DENORMAL
Note: The following floating-point exceptions are signalling: IEEE_UNDERFLOW_FLAG IEEE_DENORMAL
Note: The following floating-point exceptions are signalling: IEEE_UNDERFLOW_FLAG IEEE_DENORMAL
Note: The following floating-point exceptions are signalling: IEEE_UNDERFLOW_FLAG IEEE_DENORMAL
Note: The following floating-point exceptions are signalling: IEEE_UNDERFLOW_FLAG IEEE_DENORMAL
Note: The following floating-point exceptions are signalling: IEEE_UNDERFLOW_FLAG IEEE_DENORMAL
Note: The following floating-point exceptions are signalling: IEEE_UNDERFLOW_FLAG IEEE_DENORMAL
Note: The following floating-point exceptions are signalling: IEEE_UNDERFLOW_FLAG IEEE_DENORMAL
Note: The following floating-point exceptions are signalling: IEEE_UNDERFLOW_FLAG IEEE_DENORMAL
Note: The following floating-point exceptions are signalling: IEEE_UNDERFLOW_FLAG IEEE_DENORMAL
Note: The following floating-point exceptions are signalling: IEEE_UNDERFLOW_FLAG IEEE_DENORMAL
Note: The following floating-point exceptions are signalling: IEEE_UNDERFLOW_FLAG IEEE_DENORMAL
Note: The following floating-point exceptions are signalling: IEEE_UNDERFLOW_FLAG IEEE_DENORMAL
Note: The following floating-point exceptions are signalling: IEEE_UNDERFLOW_FLAG IEEE_DENORMAL
Note: The following floating-point exceptions are signalling: IEEE_UNDERFLOW_FLAG IEEE_DENORMAL
Note: The following floating-point exceptions are signalling: IEEE_UNDERFLOW_FLAG IEEE_DENORMAL
Note: The following floating-point exceptions are signalling: IEEE_UNDERFLOW_FLAG IEEE_DENORMAL
Note: The following floating-point exceptions are signalling: IEEE_UNDERFLOW_FLAG IEEE_DENORMAL
Note: The following floating-point exceptions are signalling: IEEE_UNDERFLOW_FLAG IEEE_DENORMAL
Note: The following floating-point exceptions are signalling: IEEE_UNDERFLOW_FLAG IEEE_DENORMAL
Note: The following floating-point exceptions are signalling: IEEE_UNDERFLOW_FLAG IEEE_DENORMAL
Note: The following floating-point exceptions are signalling: IEEE_UNDERFLOW_FLAG IEEE_DENORMAL
Note: The following floating-point exceptions are signalling: IEEE_UNDERFLOW_FLAG IEEE_DENORMAL
Note: The following floating-point exceptions are signalling: IEEE_UNDERFLOW_FLAG IEEE_DENORMAL
Note: The following floating-point exceptions are signalling: IEEE_UNDERFLOW_FLAG IEEE_DENORMAL
Note: The following floating-point exceptions are signalling: IEEE_UNDERFLOW_FLAG IEEE_DENORMAL
Note: The following floating-point exceptions are signalling: IEEE_UNDERFLOW_FLAG IEEE_DENORMAL
Note: The following floating-point exceptions are signalling: IEEE_UNDERFLOW_FLAG IEEE_DENORMAL
Note: The following floating-point exceptions are signalling: IEEE_UNDERFLOW_FLAG IEEE_DENORMAL
Note: The following floating-point exceptions are signalling: IEEE_UNDERFLOW_FLAG IEEE_DENORMAL
Note: The following floating-point exceptions are signalling: IEEE_UNDERFLOW_FLAG IEEE_DENORMAL
Note: The following floating-point exceptions are signalling: IEEE_UNDERFLOW_FLAG IEEE_DENORMAL
Note: The following floating-point exceptions are signalling: IEEE_UNDERFLOW_FLAG IEEE_DENORMAL
Note: The following floating-point exceptions are signalling: IEEE_UNDERFLOW_FLAG IEEE_DENORMAL
Note: The following floating-point exceptions are signalling: IEEE_UNDERFLOW_FLAG IEEE_DENORMAL
Note: The following floating-point exceptions are signalling: IEEE_UNDERFLOW_FLAG IEEE_DENORMAL
Note: The following floating-point exceptions are signalling: IEEE_UNDERFLOW_FLAG IEEE_DENORMAL
Note: The following floating-point exceptions are signalling: IEEE_UNDERFLOW_FLAG IEEE_DENORMAL
Note: The following floating-point exceptions are signalling: IEEE_UNDERFLOW_FLAG IEEE_DENORMAL
Note: The following floating-point exceptions are signalling: IEEE_UNDERFLOW_FLAG IEEE_DENORMAL
Note: The following floating-point exceptions are signalling: IEEE_UNDERFLOW_FLAG IEEE_DENORMAL
Note: The following floating-point exceptions are signalling: IEEE_UNDERFLOW_FLAG IEEE_DENORMAL
Note: The following floating-point exceptions are signalling: IEEE_UNDERFLOW_FLAG IEEE_DENORMAL
Note: The following floating-point exceptions are signalling: IEEE_UNDERFLOW_FLAG IEEE_DENORMAL
Note: The following floating-point exceptions are signalling: IEEE_UNDERFLOW_FLAG IEEE_DENORMAL
Note: The following floating-point exceptions are signalling: IEEE_UNDERFLOW_FLAG IEEE_DENORMAL
Note: The following floating-point exceptions are signalling: IEEE_UNDERFLOW_FLAG IEEE_DENORMAL
Note: The following floating-point exceptions are signalling: IEEE_UNDERFLOW_FLAG IEEE_DENORMAL
Note: The following floating-point exceptions are signalling: IEEE_UNDERFLOW_FLAG IEEE_DENORMAL
Note: The following floating-point exceptions are signalling: IEEE_UNDERFLOW_FLAG IEEE_DENORMAL
Note: The following floating-point exceptions are signalling: IEEE_UNDERFLOW_FLAG IEEE_DENORMAL
Note: The following floating-point exceptions are signalling: IEEE_UNDERFLOW_FLAG IEEE_DENORMAL
Note: The following floating-point exceptions are signalling: IEEE_UNDERFLOW_FLAG IEEE_DENORMAL
Note: The following floating-point exceptions are signalling: IEEE_UNDERFLOW_FLAG IEEE_DENORMAL
Note: The following floating-point exceptions are signalling: IEEE_UNDERFLOW_FLAG IEEE_DENORMAL
Note: The following floating-point exceptions are signalling: IEEE_UNDERFLOW_FLAG IEEE_DENORMAL
Note: The following floating-point exceptions are signalling: IEEE_UNDERFLOW_FLAG IEEE_DENORMAL
Note: The following floating-point exceptions are signalling: IEEE_UNDERFLOW_FLAG IEEE_DENORMAL
Note: The following floating-point exceptions are signalling: IEEE_UNDERFLOW_FLAG IEEE_DENORMAL
Note: The following floating-point exceptions are signalling: IEEE_UNDERFLOW_FLAG IEEE_DENORMAL
Note: The following floating-point exceptions are signalling: IEEE_UNDERFLOW_FLAG IEEE_DENORMAL
Note: The following floating-point exceptions are signalling: IEEE_UNDERFLOW_FLAG IEEE_DENORMAL
Note: The following floating-point exceptions are signalling: IEEE_UNDERFLOW_FLAG IEEE_DENORMAL
Note: The following floating-point exceptions are signalling: IEEE_UNDERFLOW_FLAG IEEE_DENORMAL
Note: The following floating-point exceptions are signalling: IEEE_UNDERFLOW_FLAG IEEE_DENORMAL
Note: The following floating-point exceptions are signalling: IEEE_UNDERFLOW_FLAG IEEE_DENORMAL
Note: The following floating-point exceptions are signalling: IEEE_UNDERFLOW_FLAG IEEE_DENORMAL
Note: The following floating-point exceptions are signalling: IEEE_UNDERFLOW_FLAG IEEE_DENORMAL
Note: The following floating-point exceptions are signalling: IEEE_UNDERFLOW_FLAG IEEE_DENORMAL
Note: The following floating-point exceptions are signalling: IEEE_UNDERFLOW_FLAG IEEE_DENORMAL
Note: The following floating-point exceptions are signalling: IEEE_UNDERFLOW_FLAG IEEE_DENORMAL
Note: The following floating-point exceptions are signalling: IEEE_UNDERFLOW_FLAG IEEE_DENORMAL
Note: The following floating-point exceptions are signalling: IEEE_UNDERFLOW_FLAG IEEE_DENORMAL
Note: The following floating-point exceptions are signalling: IEEE_UNDERFLOW_FLAG IEEE_DENORMAL
Note: The following floating-point exceptions are signalling: IEEE_UNDERFLOW_FLAG IEEE_DENORMAL
Note: The following floating-point exceptions are signalling: IEEE_UNDERFLOW_FLAG IEEE_DENORMAL
Note: The following floating-point exceptions are signalling: IEEE_UNDERFLOW_FLAG IEEE_DENORMAL
Note: The following floating-point exceptions are signalling: IEEE_UNDERFLOW_FLAG IEEE_DENORMAL
Note: The following floating-point exceptions are signalling: IEEE_UNDERFLOW_FLAG IEEE_DENORMAL
Note: The following floating-point exceptions are signalling: IEEE_UNDERFLOW_FLAG IEEE_DENORMAL
Note: The following floating-point exceptions are signalling: IEEE_UNDERFLOW_FLAG IEEE_DENORMAL
Note: The following floating-point exceptions are signalling: IEEE_UNDERFLOW_FLAG IEEE_DENORMAL
Note: The following floating-point exceptions are signalling: IEEE_UNDERFLOW_FLAG IEEE_DENORMAL
Note: The following floating-point exceptions are signalling: IEEE_UNDERFLOW_FLAG IEEE_DENORMAL
Note: The following floating-point exceptions are signalling: IEEE_UNDERFLOW_FLAG IEEE_DENORMAL
Note: The following floating-point exceptions are signalling: IEEE_UNDERFLOW_FLAG IEEE_DENORMAL
Note: The following floating-point exceptions are signalling: IEEE_UNDERFLOW_FLAG IEEE_DENORMAL
end_date Mon Oct 31 20:22:11 GMT 2022
 
TEMPORARY          SAVED (in /mnt/lustre/a2fs-work2/work/e05/e05/bcamino/quantum_computing/test_model/optgeom)
fort.34            graphene_3v_E.gui 1492     Oct 31 20:22
fort.33            graphene_3v_E.xyz 35525    Oct 31 20:22
fort.9             graphene_3v_E.f9  1555240  Oct 31 20:22
fort.98            graphene_3v_E.f98 4047965  Oct 31 20:22
SCFOUT.LOG         graphene_3v_E.SCFLOG690439   Oct 31 20:22
OPTINFO.DAT        graphene_3v_E.OPTINFO11906031 Oct 31 20:22
HESSOPT.DAT        graphene_3v_E.HESSOPT37485    Oct 31 20:22
opta001            opta002            
Disk usage:<du -m>
475	/mnt/lustre/a2fs-work2/work/e05/e05/bcamino/quantum_computing/test_model/optgeom/tmp_graphene_3v_E_
</du -m>
Filesystem                                          1K-blocks          Used     Available Use% Mounted on
10.253.102.2@o2ib1:10.253.102.3@o2ib1:/cls01097 3582178503216 1813691065720 1732283565048  52% /mnt/lustre/a2fs-work2
10.253.102.2@o2ib1:10.253.102.3@o2ib1:/cls01097 3582178503216 1813691065720 1732283565048  52% /mnt/lustre/a2fs-work2
