date:                Mon Oct 31 19:57:46 GMT 2022
hostname:            nid005741
system:              Linux nid005741 4.12.14-197.78_9.1.64-cray_shasta_c #1 SMP Wed Aug 25 14:56:40 UTC 2021 (4e2a900) x86_64 x86_64 x86_64 GNU/Linux
user:                bcamino
input:               /mnt/lustre/a2fs-work2/work/e05/e05/bcamino/quantum_computing/test_model/optgeom/graphene_3v_D.d12
output:              /mnt/lustre/a2fs-work2/work/e05/e05/bcamino/quantum_computing/test_model/optgeom/graphene_3v_D.out
executable script:   /work/e05/e05/bcamino/runCRYSTAL/Pcry_slurm
executable:          Pcrystal
Command:             srun --hint=nomultithread --distribution=block:block Pcrystal
Slurm JobID:         
temporary directory: /mnt/lustre/a2fs-work2/work/e05/e05/bcamino/quantum_computing/test_model/optgeom/tmp_graphene_3v_D_      
input data /mnt/lustre/a2fs-work2/work/e05/e05/bcamino/quantum_computing/test_model/optgeom/graphene_3v_D.d12
Final
EXTERNAL
SYMMREMO
OPTGEOM
ATOMONLY
END
END
6 8
0 0 6 2.0 1.0
  13575.349682      0.00022245814352
  2035.2333680      0.00172327382520
  463.22562359      0.00892557153140
  131.20019598      0.03572798450200
  42.853015891      0.11076259931000
  15.584185766      0.24295627626000
0 0 2 2.0 1.0
  6.2067138508      0.41440263448000
  2.5764896527      0.23744968655000
0 0 1 0.0 1.0
  0.4941102000      1.00000000000000
0 0 1 0.0 1.0
  0.1644071000      1.00000000000000
0 2 4 2.0 1.0
  34.697232244      0.00533336578050
  7.9582622826      0.03586410909200
  2.3780826883      0.14215873329000
  0.8143320818      0.34270471845000
0 2 1 0.0 1.0
  0.5662417100      1.00000000000000
0 2 1 0.0 1.0
  0.1973545000      1.00000000000000
0 3 1 0.0 1.0
  0.5791584200      1.00000000000000
99 0
ENDBS
DFT
PBE  
ENDDFT
TOLINTEG
8 8 8 8 16
SCFDIR
SHRINK
8 16  
MAXCYCLE
200
TOLDEE
9 
ENDSCF
input data /mnt/lustre/a2fs-work2/work/e05/e05/bcamino/quantum_computing/test_model/optgeom/graphene_3v_D.gui
         128 PROCESSORS WORKING

         
 *******************************************************************************
 *                                                                             *
 *                               CRYSTAL17                                     *
 *                      public : 1.0.2 - March 1st, 2018 STFC/Archer2 build    *
 *                       HTTP://WWW.CRYSTAL.UNITO.IT                           *
 *                                                                             *
 *                              MAIN AUTHORS                                   *
 *                                                                             *
 *  R. DOVESI(1,11), V.R. SAUNDERS(2), C. ROETTI(1,11), R. ORLANDO(1,11),      *
 *  C.M. ZICOVICH-WILSON(1,3), F. PASCALE(4), B. CIVALLERI(1,11),              *
 *  K. DOLL(5), N.M. HARRISON(2,6), I.J. BUSH(7), Ph. D'ARCO(8),               *
 *  M. LLUNELL(9), M. CAUSA'(10), Y. NOEL(8), L. MASCHIO(1,11), A. ERBA(1,11)  *
 *  M. RE'RAT(14), S. CASASSA(1,11)                                            *
 *                                                                             *
 *        CONTRIBUTIONS TO THE CODE HAVE ALSO BEEN GIVEN BY                    *
 *                                                                             *
 *  M. FERRABONE(1,11), M. DE LA PIERRE(1,11), M. FERRERO(1,11),               *
 *  J. BAIMA(1,11), E. ALBANESE(1,11), M.F. PEINTINGER(12), R. BAST(13),       *
 *  B. KIRTMAN(15), V. LACIVITA(1,11), R. DEMICHELIS(1,16)                     *
 *  G. BRANDEBURG(17), S. SALUSTRO(1,11), G. SANSONE(1,11)                     *
 *  M.T. RUGGIERO(18)                                                          *
 *                                                                             *
 * (1) THEORETICAL CHEMISTRY GROUP - UNIVERSITA' DI TORINO - TORINO (ITALY)    *
 * (2) COMPUTATIONAL SCIENCE & ENGINEERING DEPARTMENT - STFC DARESBURY (UK)    *
 * (3) UNIVERSIDAD AUTONOMA DEL ESTADO DE MORELOS - CUERNAVACA (MEXICO)        *
 * (4) UNIVERSITE' DE LORRAINE - NANCY (FRANCE)                                *
 * (5) UNIVERSITAET STUTTGART- STUTTGART (GERMANY)                             *
 * (6) IMPERIAL COLLEGE - LONDON (UK)                                          *
 * (7) OXFORD E-RESEARCH CENTRE - OXFORD (UK)                                  *
 * (8) UPMC - SORBONNE UNIVERSITES - PARIS (FRANCE)                            *
 * (9) UNIVERSIDAD DE BARCELONA - BARCELONA (SPAIN)                            *
 *(10) UNIVERSITA' DI NAPOLI "FEDERICO II" - NAPOLI (ITALY)                    *
 *(11) NIS - NANOSTRUCTURED INTERFACES AND SURFACES - TORINO (ITALY)           *
 *(12) MPI FUER CHEMISCHE ENERGIEKONVERSION - MUELHEIM AN DER RUHR (GERMANY)   *
 *(13) UNIVERSITY OF TROMSO - TROMSO (NORWAY)                                  *
 *(14) UNIVERSITE' DE PAU ET DES PAYS DE L'ADOUR - PAU (FRANCE)                *
 *(15) UNIVERSITY OF CALIFORNIA SANTA BARBARA - SANTA BARBARA (USA)            *
 *(16) CURTIN UNIVERSITY - PERTH (AUSTRALIA)                                   *
 *(17) UNIVERSITY COLLEGE LONDON - LONDON (UK)                                 *
 *(18) CAMBRIDGE UNIVERSITY - CAMBRIDGE (UK)                                   *
 *                                                                             *
 *******************************************************************************
 EEEEEEEEEE STARTING  DATE 31 10 2022 TIME 19:57:49.8
 Final                                                                           

 GEOMETRY INPUT FROM EXTERNAL FILE (FORTRAN UNIT 34)
 3D - CRYSTAL 

 *******************************************************************************
 LATTICE PARAMETERS  (ANGSTROMS AND DEGREES) - PRIMITIVE CELL
       A          B          C        ALPHA      BETA     GAMMA        VOLUME
    7.40317    7.40317    8.68504    90.00000  90.00000 120.00000    412.228566
 INFORMATION **** CHKGRP **** SPGR WITH NO INVERSION

 NUMBER OF IRREDUCIBLE ATOMS IN THE CELL:   15

 CARTESIAN COORDINATES (ANGSTROM) - IRREDUCIBLE ATOMS AND SYMMETRY RELATED

 AT.IRR.  AT  AT.N.          X                   Y                   Z
     1     1     6    2.467724141366E+00  2.849482394607E+00  2.605511400000E+00
     2     2     6    3.701586212049E+00  4.986594190562E+00  2.605511400000E+00
     3     3     6    2.467724141366E+00 -1.424741197304E+00  2.605511400000E+00
     4     4     6    3.701586212049E+00  7.123705986520E-01  2.605511400000E+00
     5     5     6    3.701586212049E+00 -3.561852993259E+00  2.605511400000E+00
     6     6     6    4.935448282733E+00 -1.424741197304E+00  2.605511400000E+00
     7     7     6    6.169310353416E+00  7.123705986520E-01  2.605511400000E+00
     8     8     6    2.467724141366E+00  1.424741197304E+00  2.605511400000E+00
     9     9     6    3.701586212049E+00  3.561852993259E+00  2.605511400000E+00
    10    10     6    2.467724141366E+00 -2.849482394607E+00  2.605511400000E+00
    11    11     6    3.701586212049E+00 -7.123705986520E-01  2.605511400000E+00
    12    12     6    4.935448282733E+00  1.424741197304E+00  2.605511400000E+00
    13    13     6    3.701586212049E+00 -4.986594190562E+00  2.605511400000E+00
    14    14     6    4.935448282733E+00 -2.849482394607E+00  2.605511400000E+00
    15    15     6    6.169310353416E+00 -7.123705986520E-01  2.605511400000E+00

 SPACE  GROUP  N.                     :    1
 NUMBER OF SYMMETRY OPERATORS         :    1
 *******************************************************************************
 LATTICE PARAMETERS (ANGSTROMS AND DEGREES) - BOHR = 0.5291772083 ANGSTROM
 PRIMITIVE CELL - CENTRING CODE 1/0 VOLUME=   412.228566 - DENSITY  0.725 g/cm^3
         A              B              C           ALPHA      BETA       GAMMA 
     7.40317242     7.40317242     8.68503800    90.000000  90.000000 120.000000
 *******************************************************************************
 ATOMS IN THE ASYMMETRIC UNIT   15 - ATOMS IN THE UNIT CELL:   15
     ATOM                 X/A                 Y/B                 Z/C    
 *******************************************************************************
      1 T   6 C     1.111111111111E-01 -4.444444444445E-01  3.000000000000E-01
      2 T   6 C     1.111111111111E-01 -1.111111111111E-01  3.000000000000E-01
      3 T   6 C     4.444444444445E-01  2.222222222222E-01  3.000000000000E-01
      4 T   6 C     4.444444444444E-01 -4.444444444444E-01  3.000000000000E-01
      5 T   6 C    -2.222222222222E-01  2.222222222222E-01  3.000000000000E-01
      6 T   6 C    -2.222222222221E-01 -4.444444444443E-01  3.000000000000E-01
      7 T   6 C    -2.222222222221E-01 -1.111111111110E-01  3.000000000000E-01
      8 T   6 C     2.222222222222E-01  4.444444444445E-01  3.000000000000E-01
      9 T   6 C     2.222222222222E-01 -2.222222222222E-01  3.000000000000E-01
     10 T   6 C    -4.444444444445E-01  1.111111111111E-01  3.000000000000E-01
     11 T   6 C    -4.444444444444E-01  4.444444444444E-01  3.000000000000E-01
     12 T   6 C    -4.444444444443E-01 -2.222222222221E-01  3.000000000000E-01
     13 T   6 C    -1.111111111111E-01  1.111111111111E-01  3.000000000000E-01
     14 T   6 C    -1.111111111110E-01  4.444444444446E-01  3.000000000000E-01
     15 T   6 C    -1.111111111110E-01 -2.222222222221E-01  3.000000000000E-01

 T = ATOM BELONGING TO THE ASYMMETRIC UNIT
 *******************************************************************************
 * GEOMETRY EDITING - INPUT COORDINATES ARE GIVEN IN ANGSTROM         
 *******************************************************************************

 USE OF SYMMETRY WILL BE SUBSEQUENTLY SUSPENDED
 INFORMATION **** NEW DEFAULT **** FINALRUN 4 FOR GEOMETRY OPTIMIZATIONS
 INFORMATION **** NEW DEFAULT **** OPTGEOM OPTIMIZES BOTH ATOMIC COORDINATES AND CELL PARAMETERS
 INFORMATION **** NEW DEFAULT **** TOL. ON ATOMIC DISP TO REDEFINE REF. GEOMETRY: 0.8 Angs
 INFORMATION **** NEW DEFAULT **** N POINTS TO REDEFINE REF. GEOMETRY: N OF OPT DEGS OF FREEDOM
 INFORMATION **** NEW DEFAULT **** TOL. ON ENERGY TO REDEFINE REF. GEOMETRY: 10**-3*(5*N. ATOMS)
 INFORMATION **** ATOMONLY **** ONLY ATOMIC COORDINATES ARE OPTIMIZED

 IMPORTANT INFORMATION:
 THE COORDINATE SYSTEM ADOPTED IN THE OPTIMIZATION IS NOT IN
 GENERAL HOMOGENEOUS UNITS. FOR THIS REASON THE GRADIENT AND 
 HESSIAN MATRIX IN TERMS OF THIS SYSTEM ARE GIVEN WITHOUT
 UNITS. FOR MORE DETAILS SEE THE MANUAL.

 *******************************************************************************
 ATOMIC POSITIONS OPTIMIZATION CONTROL

 INITIAL TRUST RADIUS         0.50000 MAXIMUM TRUST RADIUS               4.00000
 MAXIMUM GRADIENT COMPONENT   0.00045 MAXIMUM DISPLACEMENT COMPONENT     0.00180
 R.M.S. OF GRADIENT COMPONENT 0.00030 R.M.S. OF DISPLACEMENT COMPONENTS  0.00120
 THRESHOLD ON ENERGY CHANGE 0.100E-06 EXTRAPOLATING POLYNOMIAL ORDER           2
 MAXIMUM ALLOWED NUMBER OF STEPS   -1 SORTING OF ENERGY POINTS:               NO
 ANALYTICAL  GRADIENT                 HESSIAN UPDATING                      BFGS
 STEP SIZE NUMERICAL GRADIENT 0.00100
 INITIAL HESSIAN MATRIX: SCHLEGEL MODEL 2
 *******************************************************************************


 GCALCO - MAX INDICES DIRECT LATTICE VECTOR    16    16    12
 NO.OF VECTORS CREATED 6999 STARS  379 RMAX   166.99060 BOHR

 GEOMETRY FOR WAVE FUNCTION - DIMENSIONALITY OF THE SYSTEM    3
 (NON PERIODIC DIRECTION: LATTICE PARAMETER FORMALLY SET TO 500)
 *******************************************************************************
 LATTICE PARAMETERS (ANGSTROMS AND DEGREES) - BOHR = 0.5291772083 ANGSTROM
 PRIMITIVE CELL - CENTRING CODE 1/0 VOLUME=   412.228566 - DENSITY  0.725 g/cm^3
         A              B              C           ALPHA      BETA       GAMMA 
     7.40317242     7.40317242     8.68503800    90.000000  90.000000 120.000000
 *******************************************************************************
 ATOMS IN THE ASYMMETRIC UNIT   15 - ATOMS IN THE UNIT CELL:   15
     ATOM                 X/A                 Y/B                 Z/C    
 *******************************************************************************
      1 T   6 C     1.111111111111E-01 -4.444444444445E-01  3.000000000000E-01
      2 T   6 C     1.111111111111E-01 -1.111111111111E-01  3.000000000000E-01
      3 T   6 C     4.444444444445E-01  2.222222222222E-01  3.000000000000E-01
      4 T   6 C     4.444444444444E-01 -4.444444444444E-01  3.000000000000E-01
      5 T   6 C    -2.222222222222E-01  2.222222222222E-01  3.000000000000E-01
      6 T   6 C    -2.222222222221E-01 -4.444444444443E-01  3.000000000000E-01
      7 T   6 C    -2.222222222221E-01 -1.111111111110E-01  3.000000000000E-01
      8 T   6 C     2.222222222222E-01  4.444444444445E-01  3.000000000000E-01
      9 T   6 C     2.222222222222E-01 -2.222222222222E-01  3.000000000000E-01
     10 T   6 C    -4.444444444445E-01  1.111111111111E-01  3.000000000000E-01
     11 T   6 C    -4.444444444444E-01  4.444444444444E-01  3.000000000000E-01
     12 T   6 C    -4.444444444443E-01 -2.222222222221E-01  3.000000000000E-01
     13 T   6 C    -1.111111111111E-01  1.111111111111E-01  3.000000000000E-01
     14 T   6 C    -1.111111111110E-01  4.444444444446E-01  3.000000000000E-01
     15 T   6 C    -1.111111111110E-01 -2.222222222221E-01  3.000000000000E-01

 T = ATOM BELONGING TO THE ASYMMETRIC UNIT

 ****    1 SYMMOPS - TRANSLATORS IN FRACTIONAL UNITS
 **** MATRICES AND TRANSLATORS IN THE CRYSTALLOGRAPHIC REFERENCE FRAME
   V INV                    ROTATION MATRICES                   TRANSLATORS
   1   1  1.00  0.00  0.00  0.00  1.00  0.00  0.00  0.00  1.00  0.00  0.00  0.00

 DIRECT LATTICE VECTORS CARTESIAN COMPONENTS (ANGSTROM)
          X                    Y                    Z
   0.370158621205E+01  -0.641133538787E+01   0.000000000000E+00
   0.370158621205E+01   0.641133538787E+01   0.000000000000E+00
   0.000000000000E+00   0.000000000000E+00   0.868503800000E+01


 CARTESIAN COORDINATES - PRIMITIVE CELL
 *******************************************************************************
 *      ATOM          X(ANGSTROM)         Y(ANGSTROM)         Z(ANGSTROM)
 *******************************************************************************
    1     6 C     2.467724141366E+00  2.849482394607E+00  2.605511400000E+00
    2     6 C     3.701586212049E+00  4.986594190562E+00  2.605511400000E+00
    3     6 C     2.467724141366E+00 -1.424741197304E+00  2.605511400000E+00
    4     6 C     3.701586212049E+00  7.123705986520E-01  2.605511400000E+00
    5     6 C     3.701586212049E+00 -3.561852993259E+00  2.605511400000E+00
    6     6 C     4.935448282733E+00 -1.424741197304E+00  2.605511400000E+00
    7     6 C     6.169310353416E+00  7.123705986520E-01  2.605511400000E+00
    8     6 C     2.467724141366E+00  1.424741197304E+00  2.605511400000E+00
    9     6 C     3.701586212049E+00  3.561852993259E+00  2.605511400000E+00
   10     6 C     2.467724141366E+00 -2.849482394607E+00  2.605511400000E+00
   11     6 C     3.701586212049E+00 -7.123705986520E-01  2.605511400000E+00
   12     6 C     4.935448282733E+00  1.424741197304E+00  2.605511400000E+00
   13     6 C     3.701586212049E+00 -4.986594190562E+00  2.605511400000E+00
   14     6 C     4.935448282733E+00 -2.849482394607E+00  2.605511400000E+00
   15     6 C     6.169310353416E+00 -7.123705986520E-01  2.605511400000E+00

 *******************************************************************************
 LOCAL ATOMIC FUNCTIONS BASIS SET
 *******************************************************************************
   ATOM   X(AU)   Y(AU)   Z(AU)  N. TYPE  EXPONENT  S COEF   P COEF   D/F/G COEF
 *******************************************************************************
   1 C    4.663   5.385   4.924
                                  1 S  
                                         1.358E+04 2.225E-04 0.000E+00 0.000E+00
                                         2.035E+03 1.723E-03 0.000E+00 0.000E+00
                                         4.632E+02 8.926E-03 0.000E+00 0.000E+00
                                         1.312E+02 3.573E-02 0.000E+00 0.000E+00
                                         4.285E+01 1.108E-01 0.000E+00 0.000E+00
                                         1.558E+01 2.430E-01 0.000E+00 0.000E+00
                                  2 S  
                                         6.207E+00 4.144E-01 0.000E+00 0.000E+00
                                         2.576E+00 2.374E-01 0.000E+00 0.000E+00
                                  3 S  
                                         4.941E-01 1.000E+00 0.000E+00 0.000E+00
                                  4 S  
                                         1.644E-01 1.000E+00 0.000E+00 0.000E+00
                           5-     7 P  
                                         3.470E+01 0.000E+00 5.333E-03 0.000E+00
                                         7.958E+00 0.000E+00 3.586E-02 0.000E+00
                                         2.378E+00 0.000E+00 1.422E-01 0.000E+00
                                         8.143E-01 0.000E+00 3.427E-01 0.000E+00
                           8-    10 P  
                                         5.662E-01 0.000E+00 1.000E+00 0.000E+00
                          11-    13 P  
                                         1.974E-01 0.000E+00 1.000E+00 0.000E+00
                          14-    18 D  
                                         5.792E-01 0.000E+00 0.000E+00 1.000E+00
   2 C    6.995   9.423   4.924
   3 C    4.663  -2.692   4.924
   4 C    6.995   1.346   4.924
   5 C    6.995  -6.731   4.924
   6 C    9.327  -2.692   4.924
   7 C   11.658   1.346   4.924
   8 C    4.663   2.692   4.924
   9 C    6.995   6.731   4.924
  10 C    4.663  -5.385   4.924
  11 C    6.995  -1.346   4.924
  12 C    9.327   2.692   4.924
  13 C    6.995  -9.423   4.924
  14 C    9.327  -5.385   4.924
  15 C   11.658  -1.346   4.924
 INFORMATION **** SET_MPP **** PCRYSTAL CALCULATION
 INFORMATION **** READM2 **** NEW DEFAULT: FOCK/KS MATRIX MIXING SET TO 30 %
 INFORMATION **** READM2 **** NEW DEFAULT: FULL DIRECT SCF MODE
 INFORMATION **** READM2 **** NEW DEFAULT: COULOMB BIPOLAR BUFFER SET TO 32 Mb
 INFORMATION **** READM2 **** NEW DEFAULT: EXCHANGE BIPOLAR BUFFER SET TO 32 Mb

 *******************************************************************************
 NEW DEFAULT: DFT INTEGRATION GRID INCREASED TO XLGRID
 NEW DEFAULT: DIIS ACCELERATOR ACTIVE
 USE KEYWORD NODIIS TO TURN IT OFF
 *******************************************************************************

 INFORMATION **** TOLINTEG **** COULOMB AND EXCHANGE SERIES TOLERANCES MODIFIED
 INFORMATION **** READM2 **** FULL DIRECT SCF (MONO AND BIEL INT) SELECTED
 INFORMATION **** MAXCYCLE **** MAX NUMBER OF SCF CYCLES SET TO         200
 INFORMATION **** TOLDEE **** SCF TOL ON TOTAL ENERGY SET TO           9
 *******************************************************************************
 N. OF ATOMS PER CELL        15  COULOMB OVERLAP TOL         (T1) 10**   -8
 NUMBER OF SHELLS           120  COULOMB PENETRATION TOL     (T2) 10**   -8
 NUMBER OF AO               270  EXCHANGE OVERLAP TOL        (T3) 10**   20
 N. OF ELECTRONS PER CELL    90  EXCHANGE PSEUDO OVP (F(G))  (T4) 10**   20
 CORE ELECTRONS PER CELL     30  EXCHANGE PSEUDO OVP (P(G))  (T5) 10**   20
 N. OF SYMMETRY OPERATORS     1  POLE ORDER IN MONO ZONE                  4
 *******************************************************************************
 TYPE OF CALCULATION :  RESTRICTED CLOSED SHELL
 KOHN-SHAM HAMILTONIAN

 (EXCHANGE)[CORRELATION] FUNCTIONAL:(PERDEW-BURKE-ERNZERHOF)[PERDEW-BURKE-ERNZERHOF]


 CAPPA:IS1  8;IS2  8;IS3  8; K PTS MONK NET 260; SYMMOPS:K SPACE   2;G SPACE   1

 *******************************************************************************
 MAX NUMBER OF SCF CYCLES     200  CONVERGENCE ON DELTAP        10**-19
 WEIGHT OF F(I) IN F(I+1)      30% CONVERGENCE ON ENERGY        10**- 9
 SHRINK. FACT.(MONKH.)    8  8  8  NUMBER OF K POINTS IN THE IBZ    260
 SHRINKING FACTOR(GILAT NET)   16  NUMBER OF K POINTS(GILAT NET)   2052
 *******************************************************************************
 *** K POINTS COORDINATES (OBLIQUE COORDINATES IN UNITS OF IS =  8)
   1-R(  0  0  0)   2-C(  1  0  0)   3-C(  2  0  0)   4-C(  3  0  0)
   5-R(  4  0  0)   6-C(  0  1  0)   7-C(  1  1  0)   8-C(  2  1  0)
   9-C(  3  1  0)  10-C(  4  1  0)  11-C(  5  1  0)  12-C(  6  1  0)
  13-C(  7  1  0)  14-C(  0  2  0)  15-C(  1  2  0)  16-C(  2  2  0)
  17-C(  3  2  0)  18-C(  4  2  0)  19-C(  5  2  0)  20-C(  6  2  0)
  21-C(  7  2  0)  22-C(  0  3  0)  23-C(  1  3  0)  24-C(  2  3  0)
  25-C(  3  3  0)  26-C(  4  3  0)  27-C(  5  3  0)  28-C(  6  3  0)
  29-C(  7  3  0)  30-R(  0  4  0)  31-C(  1  4  0)  32-C(  2  4  0)
  33-C(  3  4  0)  34-R(  4  4  0)  35-C(  0  0  1)  36-C(  1  0  1)
  37-C(  2  0  1)  38-C(  3  0  1)  39-C(  4  0  1)  40-C(  5  0  1)
  41-C(  6  0  1)  42-C(  7  0  1)  43-C(  0  1  1)  44-C(  1  1  1)
  45-C(  2  1  1)  46-C(  3  1  1)  47-C(  4  1  1)  48-C(  5  1  1)
  49-C(  6  1  1)  50-C(  7  1  1)  51-C(  0  2  1)  52-C(  1  2  1)
  53-C(  2  2  1)  54-C(  3  2  1)  55-C(  4  2  1)  56-C(  5  2  1)
  57-C(  6  2  1)  58-C(  7  2  1)  59-C(  0  3  1)  60-C(  1  3  1)
  61-C(  2  3  1)  62-C(  3  3  1)  63-C(  4  3  1)  64-C(  5  3  1)
  65-C(  6  3  1)  66-C(  7  3  1)  67-C(  0  4  1)  68-C(  1  4  1)
  69-C(  2  4  1)  70-C(  3  4  1)  71-C(  4  4  1)  72-C(  5  4  1)
  73-C(  6  4  1)  74-C(  7  4  1)  75-C(  0  5  1)  76-C(  1  5  1)
  77-C(  2  5  1)  78-C(  3  5  1)  79-C(  4  5  1)  80-C(  5  5  1)
  81-C(  6  5  1)  82-C(  7  5  1)  83-C(  0  6  1)  84-C(  1  6  1)
  85-C(  2  6  1)  86-C(  3  6  1)  87-C(  4  6  1)  88-C(  5  6  1)
  89-C(  6  6  1)  90-C(  7  6  1)  91-C(  0  7  1)  92-C(  1  7  1)
  93-C(  2  7  1)  94-C(  3  7  1)  95-C(  4  7  1)  96-C(  5  7  1)
  97-C(  6  7  1)  98-C(  7  7  1)  99-C(  0  0  2) 100-C(  1  0  2)
 101-C(  2  0  2) 102-C(  3  0  2) 103-C(  4  0  2) 104-C(  5  0  2)
 105-C(  6  0  2) 106-C(  7  0  2) 107-C(  0  1  2) 108-C(  1  1  2)
 109-C(  2  1  2) 110-C(  3  1  2) 111-C(  4  1  2) 112-C(  5  1  2)
 113-C(  6  1  2) 114-C(  7  1  2) 115-C(  0  2  2) 116-C(  1  2  2)
 117-C(  2  2  2) 118-C(  3  2  2) 119-C(  4  2  2) 120-C(  5  2  2)
 121-C(  6  2  2) 122-C(  7  2  2) 123-C(  0  3  2) 124-C(  1  3  2)
 125-C(  2  3  2) 126-C(  3  3  2) 127-C(  4  3  2) 128-C(  5  3  2)
 129-C(  6  3  2) 130-C(  7  3  2) 131-C(  0  4  2) 132-C(  1  4  2)
 133-C(  2  4  2) 134-C(  3  4  2) 135-C(  4  4  2) 136-C(  5  4  2)
 137-C(  6  4  2) 138-C(  7  4  2) 139-C(  0  5  2) 140-C(  1  5  2)
 141-C(  2  5  2) 142-C(  3  5  2) 143-C(  4  5  2) 144-C(  5  5  2)
 145-C(  6  5  2) 146-C(  7  5  2) 147-C(  0  6  2) 148-C(  1  6  2)
 149-C(  2  6  2) 150-C(  3  6  2) 151-C(  4  6  2) 152-C(  5  6  2)
 153-C(  6  6  2) 154-C(  7  6  2) 155-C(  0  7  2) 156-C(  1  7  2)
 157-C(  2  7  2) 158-C(  3  7  2) 159-C(  4  7  2) 160-C(  5  7  2)
 161-C(  6  7  2) 162-C(  7  7  2) 163-C(  0  0  3) 164-C(  1  0  3)
 165-C(  2  0  3) 166-C(  3  0  3) 167-C(  4  0  3) 168-C(  5  0  3)
 169-C(  6  0  3) 170-C(  7  0  3) 171-C(  0  1  3) 172-C(  1  1  3)
 173-C(  2  1  3) 174-C(  3  1  3) 175-C(  4  1  3) 176-C(  5  1  3)
 177-C(  6  1  3) 178-C(  7  1  3) 179-C(  0  2  3) 180-C(  1  2  3)
 181-C(  2  2  3) 182-C(  3  2  3) 183-C(  4  2  3) 184-C(  5  2  3)
 185-C(  6  2  3) 186-C(  7  2  3) 187-C(  0  3  3) 188-C(  1  3  3)
 189-C(  2  3  3) 190-C(  3  3  3) 191-C(  4  3  3) 192-C(  5  3  3)
 193-C(  6  3  3) 194-C(  7  3  3) 195-C(  0  4  3) 196-C(  1  4  3)
 197-C(  2  4  3) 198-C(  3  4  3) 199-C(  4  4  3) 200-C(  5  4  3)
 201-C(  6  4  3) 202-C(  7  4  3) 203-C(  0  5  3) 204-C(  1  5  3)
 205-C(  2  5  3) 206-C(  3  5  3) 207-C(  4  5  3) 208-C(  5  5  3)
 209-C(  6  5  3) 210-C(  7  5  3) 211-C(  0  6  3) 212-C(  1  6  3)
 213-C(  2  6  3) 214-C(  3  6  3) 215-C(  4  6  3) 216-C(  5  6  3)
 217-C(  6  6  3) 218-C(  7  6  3) 219-C(  0  7  3) 220-C(  1  7  3)
 221-C(  2  7  3) 222-C(  3  7  3) 223-C(  4  7  3) 224-C(  5  7  3)
 225-C(  6  7  3) 226-C(  7  7  3) 227-R(  0  0  4) 228-C(  1  0  4)
 229-C(  2  0  4) 230-C(  3  0  4) 231-R(  4  0  4) 232-C(  0  1  4)
 233-C(  1  1  4) 234-C(  2  1  4) 235-C(  3  1  4) 236-C(  4  1  4)
 237-C(  5  1  4) 238-C(  6  1  4) 239-C(  7  1  4) 240-C(  0  2  4)
 241-C(  1  2  4) 242-C(  2  2  4) 243-C(  3  2  4) 244-C(  4  2  4)
 245-C(  5  2  4) 246-C(  6  2  4) 247-C(  7  2  4) 248-C(  0  3  4)
 249-C(  1  3  4) 250-C(  2  3  4) 251-C(  3  3  4) 252-C(  4  3  4)
 253-C(  5  3  4) 254-C(  6  3  4) 255-C(  7  3  4) 256-R(  0  4  4)
 257-C(  1  4  4) 258-C(  2  4  4) 259-C(  3  4  4) 260-R(  4  4  4)

 DIRECT LATTICE VECTORS COMPON. (A.U.)     RECIP. LATTICE VECTORS COMPON. (A.U.) 
        X            Y            Z              X            Y            Z
    6.9949842  -12.1156680    0.0000000      0.4491208   -0.2593000    0.0000000
    6.9949842   12.1156680    0.0000000      0.4491208    0.2593000   -0.0000000
    0.0000000    0.0000000   16.4123433     -0.0000000    0.0000000    0.3828329

 DISK SPACE FOR EIGENVECTORS (FTN 10)    37324800 REALS

 SYMMETRY ADAPTION OF THE BLOCH FUNCTIONS DISABLED
 TTTTTTTTTTTTTTTTTTTTTTTTTTTTTT gordsh1     TELAPSE        2.48 TCPU        0.98

 MATRIX SIZE: P(G)  110418, F(G)   55389, P(G) IRR   55674, F(G) IRR   55674
 MAX G-VECTOR INDEX FOR 1- AND 2-ELECTRON INTEGRALS  27

 TTTTTTTTTTTTTTTTTTTTTTTTTTTTTT INPUT       TELAPSE        2.50 TCPU        1.01

 NEIGHBORS OF THE NON-EQUIVALENT ATOMS

 N = NUMBER OF NEIGHBORS AT DISTANCE R
    ATOM  N     R/ANG      R/AU   NEIGHBORS (ATOM LABELS AND CELL INDICES)
   1 C    3     1.4247     2.6924    8 C    0 0 0    9 C    0 0 0   14 C   -1 0 0
   1 C    4     2.4677     4.6633    2 C    0 0 0    4 C    0 0 0    5 C   -1 0 0
                                     6 C   -1 0 0
   1 C    3     2.8495     5.3847   12 C    0 0 0   13 C   -1 0 0   15 C   -1 0 0
   1 C    4     3.7695     7.1233   10 C   -1 0 0   10 C    0 1 0   11 C    0 0 0
                                    11 C   -1 0 0
   1 C    6     4.2742     8.0771    3 C    0 0 0    3 C   -1 0 0    3 C    0 1 0
                                     7 C    0 0 0    7 C   -1-1 0    7 C   -1 0 0
   1 C    4     4.9354     9.3266    2 C    0-1 0    4 C   -1 0 0    5 C    0 1 0
                                     6 C    0 0 0

   2 C    2     1.4247     2.6924    9 C    0 0 0   15 C   -1 0 0
   2 C    4     2.4677     4.6633    1 C    0 0 0    3 C    0 1 0    6 C   -1 0 0
                                     7 C   -1 0 0
   2 C    3     2.8495     5.3847   10 C    0 1 0   13 C   -1 1 0   14 C   -1 0 0
   2 C    6     3.7695     7.1233    8 C    0 0 0    8 C    0 1 0   11 C   -1 0 0
                                    11 C    0 1 0   12 C    0 0 0   12 C   -1 0 0
   2 C    6     4.2742     8.0771    4 C    0 0 0    4 C   -1 0 0    4 C    0 1 0
                                     5 C   -1 0 0    5 C    0 1 0    5 C   -1 1 0
   2 C    4     4.9354     9.3266    1 C    0 1 0    3 C   -1 0 0    6 C    0 1 0
                                     7 C    0 0 0

   3 C    2     1.4247     2.6924   10 C    0 0 0   11 C    0 0 0
   3 C    4     2.4677     4.6633    2 C    0-1 0    4 C    0 0 0    5 C    0 0 0
                                     6 C    0 0 0
   3 C    3     2.8495     5.3847    8 C    0 0 0    9 C    0-1 0   14 C    0 0 0
   3 C    6     3.7695     7.1233   12 C    0 0 0   12 C    0-1 0   13 C    0 0 0
                                    13 C   -1 0 0   15 C    0 0 0   15 C   -1-1 0
   3 C    6     4.2742     8.0771    1 C    0 0 0    1 C    1 0 0    1 C    0-1 0
                                     7 C    0 0 0    7 C   -1-1 0    7 C    0-1 0
   3 C    4     4.9354     9.3266    2 C    1 0 0    4 C    0-1 0    5 C   -1 0 0
                                     6 C   -1-1 0

   4 C    3     1.4247     2.6924    8 C    0 0 0   11 C    0 0 0   12 C    0 0 0
   4 C    4     2.4677     4.6633    1 C    0 0 0    3 C    0 0 0    6 C    0 0 0
                                     7 C    0 0 0
   4 C    2     2.8495     5.3847    9 C    0 0 0   15 C    0 0 0
   4 C    6     3.7695     7.1233   10 C    0 0 0   10 C    0 1 0   13 C   -1 0 0
                                    13 C    0 1 0   14 C    0 0 0   14 C   -1 0 0
   4 C    6     4.2742     8.0771    2 C    0 0 0    2 C    1 0 0    2 C    0-1 0
                                     5 C    0 0 0    5 C   -1 0 0    5 C    0 1 0
   4 C    4     4.9354     9.3266    1 C    1 0 0    3 C    0 1 0    6 C   -1 0 0
                                     7 C   -1-1 0

   5 C    3     1.4247     2.6924   10 C    0 0 0   13 C    0 0 0   14 C    0 0 0
   5 C    4     2.4677     4.6633    1 C    1 0 0    3 C    0 0 0    6 C    0 0 0
                                     7 C    0-1 0
   5 C    3     2.8495     5.3847    8 C    1 0 0   11 C    0 0 0   12 C    0-1 0
   5 C    4     3.7695     7.1233    9 C    1 0 0    9 C    0-1 0   15 C    0 0 0
                                    15 C    0-1 0
   5 C    6     4.2742     8.0771    2 C    1 0 0    2 C    0-1 0    2 C    1-1 0
                                     4 C    0 0 0    4 C    1 0 0    4 C    0-1 0
   5 C    4     4.9354     9.3266    1 C    0-1 0    3 C    1 0 0    6 C    0-1 0
                                     7 C    0 0 0

   6 C    3     1.4247     2.6924   11 C    0 0 0   14 C    0 0 0   15 C    0 0 0
   6 C    6     2.4677     4.6633    1 C    1 0 0    2 C    1 0 0    3 C    0 0 0
                                     4 C    0 0 0    5 C    0 0 0    7 C    0 0 0
   6 C    3     2.8495     5.3847    9 C    1 0 0   10 C    0 0 0   12 C    0 0 0
   6 C    4     3.7695     7.1233    8 C    0 0 0    8 C    1 0 0   13 C    0 0 0
                                    13 C    0 1 0
   6 C    6     4.9354     9.3266    1 C    0 0 0    2 C    0-1 0    3 C    1 1 0
                                     4 C    1 0 0    5 C    0 1 0    7 C    0-1 0
   6 C    6     5.1370     9.7075    9 C    0 0 0    9 C    0-1 0   10 C    1 1 0
                                    10 C    0 1 0   12 C    1 0 0   12 C    0-1 0

   7 C    3     1.4247     2.6924   12 C    0 0 0   13 C    0 1 0   15 C    0 0 0
   7 C    4     2.4677     4.6633    2 C    1 0 0    4 C    0 0 0    5 C    0 1 0
                                     6 C    0 0 0
   7 C    2     2.8495     5.3847   10 C    0 1 0   11 C    0 0 0
   7 C    6     3.7695     7.1233    8 C    0 0 0    8 C    1 1 0    9 C    0 0 0
                                     9 C    1 0 0   14 C    0 0 0   14 C    0 1 0
   7 C    6     4.2742     8.0771    1 C    0 0 0    1 C    1 1 0    1 C    1 0 0
                                     3 C    0 0 0    3 C    1 1 0    3 C    0 1 0
   7 C    4     4.9354     9.3266    2 C    0 0 0    4 C    1 1 0    5 C    0 0 0
                                     6 C    0 1 0

   8 C    2     1.4247     2.6924    1 C    0 0 0    4 C    0 0 0
   8 C    5     2.4677     4.6633    9 C    0 0 0   11 C    0 0 0   12 C    0 0 0
                                    13 C   -1 0 0   14 C   -1 0 0
   8 C    2     2.8495     5.3847    3 C    0 0 0    5 C   -1 0 0
   8 C    6     3.7695     7.1233    2 C    0 0 0    2 C    0-1 0    6 C    0 0 0
                                     6 C   -1 0 0    7 C    0 0 0    7 C   -1-1 0
   8 C    6     4.2742     8.0771   10 C    0 0 0   10 C   -1 0 0   10 C    0 1 0
                                    15 C    0 0 0   15 C   -1-1 0   15 C   -1 0 0
   8 C    5     4.9354     9.3266    9 C    0-1 0   11 C   -1 0 0   12 C   -1-1 0
                                    13 C    0 1 0   14 C    0 0 0

   9 C    2     1.4247     2.6924    1 C    0 0 0    2 C    0 0 0
   9 C    5     2.4677     4.6633    8 C    0 0 0   10 C    0 1 0   12 C    0 0 0
                                    14 C   -1 0 0   15 C   -1 0 0
   9 C    3     2.8495     5.3847    3 C    0 1 0    4 C    0 0 0    6 C   -1 0 0
   9 C    4     3.7695     7.1233    5 C   -1 0 0    5 C    0 1 0    7 C    0 0 0
                                     7 C   -1 0 0
   9 C    6     4.2742     8.0771   11 C    0 0 0   11 C   -1 0 0   11 C    0 1 0
                                    13 C   -1 0 0   13 C    0 1 0   13 C   -1 1 0
   9 C    5     4.9354     9.3266    8 C    0 1 0   10 C   -1 0 0   12 C   -1 0 0
                                    14 C    0 1 0   15 C    0 0 0

  10 C    2     1.4247     2.6924    3 C    0 0 0    5 C    0 0 0
  10 C    5     2.4677     4.6633    9 C    0-1 0   11 C    0 0 0   12 C    0-1 0
                                    13 C    0 0 0   14 C    0 0 0
  10 C    3     2.8495     5.3847    2 C    0-1 0    6 C    0 0 0    7 C    0-1 0
  10 C    4     3.7695     7.1233    1 C    1 0 0    1 C    0-1 0    4 C    0 0 0
                                     4 C    0-1 0
  10 C    6     4.2742     8.0771    8 C    0 0 0    8 C    1 0 0    8 C    0-1 0
                                    15 C    0 0 0   15 C   -1-1 0   15 C    0-1 0
  10 C    5     4.9354     9.3266    9 C    1 0 0   11 C    0-1 0   12 C    0 0 0
                                    13 C   -1 0 0   14 C   -1-1 0

  11 C    3     1.4247     2.6924    3 C    0 0 0    4 C    0 0 0    6 C    0 0 0
  11 C    5     2.4677     4.6633    8 C    0 0 0   10 C    0 0 0   12 C    0 0 0
                                    14 C    0 0 0   15 C    0 0 0
  11 C    2     2.8495     5.3847    5 C    0 0 0    7 C    0 0 0
  11 C    4     3.7695     7.1233    1 C    0 0 0    1 C    1 0 0    2 C    1 0 0
                                     2 C    0-1 0
  11 C    6     4.2742     8.0771    9 C    0 0 0    9 C    1 0 0    9 C    0-1 0
                                    13 C    0 0 0   13 C   -1 0 0   13 C    0 1 0
  11 C    5     4.9354     9.3266    8 C    1 0 0   10 C    0 1 0   12 C    0-1 0
                                    14 C   -1 0 0   15 C   -1-1 0

  12 C    2     1.4247     2.6924    4 C    0 0 0    7 C    0 0 0
  12 C    6     2.4677     4.6633    8 C    0 0 0    9 C    0 0 0   10 C    0 1 0
                                    11 C    0 0 0   13 C    0 1 0   15 C    0 0 0
  12 C    3     2.8495     5.3847    1 C    0 0 0    5 C    0 1 0    6 C    0 0 0
  12 C    4     3.7695     7.1233    2 C    0 0 0    2 C    1 0 0    3 C    0 0 0
                                     3 C    0 1 0
  12 C    3     4.2742     8.0771   14 C    0 0 0   14 C   -1 0 0   14 C    0 1 0
  12 C    6     4.9354     9.3266    8 C    1 1 0    9 C    1 0 0   10 C    0 0 0
                                    11 C    0 1 0   13 C   -1 0 0   15 C   -1 0 0

  13 C    2     1.4247     2.6924    5 C    0 0 0    7 C    0-1 0
  13 C    5     2.4677     4.6633    8 C    1 0 0   10 C    0 0 0   12 C    0-1 0
                                    14 C    0 0 0   15 C    0-1 0
  13 C    2     2.8495     5.3847    1 C    1 0 0    2 C    1-1 0
  13 C    6     3.7695     7.1233    3 C    0 0 0    3 C    1 0 0    4 C    1 0 0
                                     4 C    0-1 0    6 C    0 0 0    6 C    0-1 0
  13 C    6     4.2742     8.0771    9 C    1 0 0    9 C    0-1 0    9 C    1-1 0
                                    11 C    0 0 0   11 C    1 0 0   11 C    0-1 0
  13 C    5     4.9354     9.3266    8 C    0-1 0   10 C    1 0 0   12 C    1 0 0
                                    14 C    0-1 0   15 C    0 0 0

  14 C    3     1.4247     2.6924    1 C    1 0 0    5 C    0 0 0    6 C    0 0 0
  14 C    6     2.4677     4.6633    8 C    1 0 0    9 C    1 0 0   10 C    0 0 0
                                    11 C    0 0 0   13 C    0 0 0   15 C    0 0 0
  14 C    2     2.8495     5.3847    2 C    1 0 0    3 C    0 0 0
  14 C    4     3.7695     7.1233    4 C    0 0 0    4 C    1 0 0    7 C    0 0 0
                                     7 C    0-1 0
  14 C    3     4.2742     8.0771   12 C    0 0 0   12 C    1 0 0   12 C    0-1 0
  14 C    6     4.9354     9.3266    8 C    0 0 0    9 C    0-1 0   10 C    1 1 0
                                    11 C    1 0 0   13 C    0 1 0   15 C    0-1 0

  15 C    3     1.4247     2.6924    2 C    1 0 0    6 C    0 0 0    7 C    0 0 0
  15 C    5     2.4677     4.6633    9 C    1 0 0   11 C    0 0 0   12 C    0 0 0
                                    13 C    0 1 0   14 C    0 0 0
  15 C    2     2.8495     5.3847    1 C    1 0 0    4 C    0 0 0
  15 C    4     3.7695     7.1233    3 C    0 0 0    3 C    1 1 0    5 C    0 0 0
                                     5 C    0 1 0
  15 C    6     4.2742     8.0771    8 C    0 0 0    8 C    1 1 0    8 C    1 0 0
                                    10 C    0 0 0   10 C    1 1 0   10 C    0 1 0
  15 C    5     4.9354     9.3266    9 C    0 0 0   11 C    1 1 0   12 C    1 0 0
                                    13 C    0 0 0   14 C    0 1 0


 SYMMETRY ALLOWED INTERNAL DEGREE(S) OF FREEDOM:  42
 TTTTTTTTTTTTTTTTTTTTTTTTTTTTTT SYMM        TELAPSE        2.51 TCPU        1.01
 TTTTTTTTTTTTTTTTTTTTTTTTTTTTTT INT_SCREEN  TELAPSE        2.51 TCPU        1.01

 *******************************************************************************
 *                             OPTIMIZATION STARTS                             *
 *******************************************************************************
 RECLASIFICATION OF INDICES FOR INTEGRAL CALC ACCORDING TO DIFFERENT CRITERIA:
           FIXDELTE                  FIXDELTX              FIXDELTN
          0.10000000               0.80000000                 42
 DEFAULT MAX NUM OF POINTS  100
 *******************************************************************************

 *******************************************************************************
 COORDINATE OPTIMIZATION - POINT    1
 INFORMATION **** EXCBUF **** EXCH. BIPO BUFFER: WORDS USED =           0

 DFT PARAMETERS

     ATOM       ELECTRONS   NET CHARGE   R(ANGSTROM)
   1   6  C       6.0000      0.0000     0.77000000

 SIZE OF GRID=     503254
 TTTTTTTTTTTTTTTTTTTTTTTTTTTTTT MAKE_GRID2  TELAPSE        2.86 TCPU        1.36
 BECKE WEIGHT FUNCTION
 RADSAFE =     2.00
 TOLERANCES - DENSITY:10**- 6; POTENTIAL:10**- 9; GRID WGT:10**-14

 RADIAL INTEGRATION  - INTERVALS (POINTS,UPPER LIMIT):            1( 75,  4.0*R)

 ANGULAR INTEGRATION - INTERVALS (ACCURACY LEVEL [N. POINTS] UPPER LIMIT):
  1(  4[  86]   0.2)  2(  8[ 194]   0.5)  3( 12[ 350]   0.9)  4( 16[ 974]   3.5)
  5( 12[ 350]9999.0)
 TTTTTTTTTTTTTTTTTTTTTTTTTTTTTT INT_CALC    TELAPSE        2.88 TCPU        1.38

 *******************************************************************************
 Final                                                                           
 CRYSTAL - SCF - TYPE OF CALCULATION :  RESTRICTED CLOSED SHELL
 *******************************************************************************

 CAPPA:IS1  8;IS2  8;IS3  8; K PTS MONK NET 260; SYMMOPS:K SPACE   2;G SPACE   1

 TTTTTTTTTTTTTTTTTTTTTTTTTTTTTT SDIK        TELAPSE        2.94 TCPU        1.44

 AAAAAAAAAAAAAAAAAAAAAAAAAAAAAAAAAAAAAAAAAAAAAAAAAAAAAAAAAAAAAAAAAAAAAAAAAAAAAAA
         ATOMIC WAVEFUNCTION(S)


 NUCLEAR CHARGE  6.0  SYMMETRY SPECIES            S    P
 N. ELECTRONS    6.0  NUMBER OF PRIMITIVE GTOS   10    6
                      NUMBER OF CONTRACTED GTOS   4    3
                      NUMBER OF CLOSED SHELLS     2    0
                      OPEN SHELL OCCUPATION       0    2

  ZNUC SCFIT  TOTAL HF ENERGY   KINETIC ENERGY   VIRIAL THEOREM ACCURACY
   6.0  10   -3.768111494E+01  3.771190961E+01 -1.999183423E+00  3.4E-06

 AAAAAAAAAAAAAAAAAAAAAAAAAAAAAAAAAAAAAAAAAAAAAAAAAAAAAAAAAAAAAAAAAAAAAAAAAAAAAAA

 CHARGE NORMALIZATION FACTOR   1.00000000
 TOTAL ATOMIC CHARGES:
   6.0000000   6.0000000   6.0000000   6.0000000   6.0000000   6.0000000
   6.0000000   6.0000000   6.0000000   6.0000000   6.0000000   6.0000000
   6.0000000   6.0000000   6.0000000
 TTTTTTTTTTTTTTTTTTTTTTTTTTTTTT MOQGAD      TELAPSE        2.95 TCPU        1.45
 TTTTTTTTTTTTTTTTTTTTTTTTTTTTTT SHELLXN     TELAPSE        3.60 TCPU        2.10
 TTTTTTTTTTTTTTTTTTTTTTTTTTTTTT MONMO3      TELAPSE        3.66 TCPU        2.15
 NUMERICALLY INTEGRATED DENSITY     89.9997967041
 TTTTTTTTTTTTTTTTTTTTTTTTTTTTTT NUMDFT      TELAPSE        3.81 TCPU        2.30
 CYC   0 ETOT(AU) -5.739754950040E+02 DETOT -5.74E+02 tst  0.00E+00 PX  1.00E+00
 TTTTTTTTTTTTTTTTTTTTTTTTTTTTTT DIIS        TELAPSE        3.82 TCPU        2.31
 TTTTTTTTTTTTTTTTTTTTTTTTTTTTTT FDIK        TELAPSE        3.98 TCPU        2.47
 POSSIBLY CONDUCTING STATE - EFERMI(AU) -2.3212210E-01 (RES. CHARGE  3.78E-12;IT. 18)
 TTTTTTTTTTTTTTTTTTTTTTTTTTTTTT PDIG        TELAPSE        4.07 TCPU        2.56
 CHARGE NORMALIZATION FACTOR   1.00000000
 TOTAL ATOMIC CHARGES:
   6.1223801   6.2698478   6.2698484   6.0920664   6.1223741   6.0219758
   6.0920690   5.7246113   6.0156164   6.0156215   5.9734792   5.6000578
   5.7246113   5.9819611   5.9734800
 TTTTTTTTTTTTTTTTTTTTTTTTTTTTTT MOQGAD      TELAPSE        4.07 TCPU        2.56
 TTTTTTTTTTTTTTTTTTTTTTTTTTTTTT SHELLXN     TELAPSE        4.82 TCPU        3.31
 TTTTTTTTTTTTTTTTTTTTTTTTTTTTTT MONMO3      TELAPSE        4.87 TCPU        3.36
 NUMERICALLY INTEGRATED DENSITY     89.9998415428
 TTTTTTTTTTTTTTTTTTTTTTTTTTTTTT NUMDFT      TELAPSE        5.13 TCPU        3.62
 CYC   1 ETOT(AU) -5.703926710726E+02 DETOT  3.58E+00 tst  0.00E+00 PX  1.00E+00
 TTTTTTTTTTTTTTTTTTTTTTTTTTTTTT DIIS        TELAPSE        5.14 TCPU        3.63
 DIIS TEST: 0.10335E+01 AT SCF   CYCLE   1 - MIX   30 %
 TTTTTTTTTTTTTTTTTTTTTTTTTTTTTT FDIK        TELAPSE        5.31 TCPU        3.79
 POSSIBLY CONDUCTING STATE - EFERMI(AU) -1.8955673E-01 (RES. CHARGE  8.15E-12;IT.  8)
 TTTTTTTTTTTTTTTTTTTTTTTTTTTTTT PDIG        TELAPSE        5.40 TCPU        3.89
 CHARGE NORMALIZATION FACTOR   1.00000000
 TOTAL ATOMIC CHARGES:
   5.7707161   4.8944233   4.8944240   5.9320703   5.7707098   5.8055841
   5.9320731   7.0556886   5.8378053   5.8378116   5.9334882   7.3873532
   7.0556885   5.9586747   5.9334894
 TTTTTTTTTTTTTTTTTTTTTTTTTTTTTT MOQGAD      TELAPSE        5.40 TCPU        3.89
 TTTTTTTTTTTTTTTTTTTTTTTTTTTTTT SHELLXN     TELAPSE        6.15 TCPU        4.64
 TTTTTTTTTTTTTTTTTTTTTTTTTTTTTT MONMO3      TELAPSE        6.20 TCPU        4.69
 NUMERICALLY INTEGRATED DENSITY     89.9998094902
 TTTTTTTTTTTTTTTTTTTTTTTTTTTTTT NUMDFT      TELAPSE        6.46 TCPU        4.94
 CYC   2 ETOT(AU) -5.688589644257E+02 DETOT  1.53E+00 tst  5.50E-02 PX  3.03E-01
 TTTTTTTTTTTTTTTTTTTTTTTTTTTTTT DIIS        TELAPSE        6.47 TCPU        4.96
 DIIS TEST: 0.11554E+02 AT SCF   CYCLE   2 - DIIS ACTIVE - HISTORY:     2 CYCLES
 TTTTTTTTTTTTTTTTTTTTTTTTTTTTTT FDIK        TELAPSE        6.65 TCPU        5.13
 POSSIBLY CONDUCTING STATE - EFERMI(AU) -1.5378781E-01 (RES. CHARGE  4.49E-10;IT. 10)
 TTTTTTTTTTTTTTTTTTTTTTTTTTTTTT PDIG        TELAPSE        6.75 TCPU        5.23
 CHARGE NORMALIZATION FACTOR   1.00000000
 TOTAL ATOMIC CHARGES:
   5.8425680   6.0557165   6.0557174   5.8254251   5.8425615   5.9228584
   5.8254277   5.8256815   6.4844792   6.4844846   6.0002207   6.0872980
   5.8256815   5.9216581   6.0002218
 TTTTTTTTTTTTTTTTTTTTTTTTTTTTTT MOQGAD      TELAPSE        6.75 TCPU        5.23
 TTTTTTTTTTTTTTTTTTTTTTTTTTTTTT SHELLXN     TELAPSE        7.50 TCPU        5.98
 TTTTTTTTTTTTTTTTTTTTTTTTTTTTTT MONMO3      TELAPSE        7.66 TCPU        6.14
 NUMERICALLY INTEGRATED DENSITY     89.9997989751
 TTTTTTTTTTTTTTTTTTTTTTTTTTTTTT NUMDFT      TELAPSE        7.91 TCPU        6.39
 CYC   3 ETOT(AU) -5.704027175932E+02 DETOT -1.54E+00 tst  2.89E-01 PX  2.66E-01
 TTTTTTTTTTTTTTTTTTTTTTTTTTTTTT DIIS        TELAPSE        7.93 TCPU        6.41
 DIIS TEST: 0.11763E+01 AT SCF   CYCLE   3 - DIIS ACTIVE - HISTORY:     3 CYCLES
 TTTTTTTTTTTTTTTTTTTTTTTTTTTTTT FDIK        TELAPSE        8.20 TCPU        6.68
 POSSIBLY CONDUCTING STATE - EFERMI(AU) -1.6149506E-01 (RES. CHARGE  6.95E-12;IT. 14)
 TTTTTTTTTTTTTTTTTTTTTTTTTTTTTT PDIG        TELAPSE        8.30 TCPU        6.78
 CHARGE NORMALIZATION FACTOR   1.00000000
 TOTAL ATOMIC CHARGES:
   6.0035162   5.9003786   5.9003794   6.0383724   6.0035096   6.0207568
   6.0383752   6.3508975   5.4499003   5.4499063   6.1401722   6.0747645
   6.3508976   6.1380006   6.1401727
 TTTTTTTTTTTTTTTTTTTTTTTTTTTTTT MOQGAD      TELAPSE        8.30 TCPU        6.78
 TTTTTTTTTTTTTTTTTTTTTTTTTTTTTT SHELLXN     TELAPSE        9.05 TCPU        7.53
 TTTTTTTTTTTTTTTTTTTTTTTTTTTTTT MONMO3      TELAPSE        9.10 TCPU        7.58
 NUMERICALLY INTEGRATED DENSITY     89.9997950025
 TTTTTTTTTTTTTTTTTTTTTTTTTTTTTT NUMDFT      TELAPSE        9.36 TCPU        7.83
 CYC   4 ETOT(AU) -5.702949888545E+02 DETOT  1.08E-01 tst  3.49E-02 PX  1.76E-01
 TTTTTTTTTTTTTTTTTTTTTTTTTTTTTT DIIS        TELAPSE        9.37 TCPU        7.84
 DIIS TEST: 0.21525E+01 AT SCF   CYCLE   4 - DIIS ACTIVE - HISTORY:     4 CYCLES
 TTTTTTTTTTTTTTTTTTTTTTTTTTTTTT FDIK        TELAPSE        9.55 TCPU        8.02
 POSSIBLY CONDUCTING STATE - EFERMI(AU) -1.7665994E-01 (RES. CHARGE  5.96E-11;IT. 14)
 TTTTTTTTTTTTTTTTTTTTTTTTTTTTTT PDIG        TELAPSE        9.65 TCPU        8.12
 CHARGE NORMALIZATION FACTOR   1.00000000
 TOTAL ATOMIC CHARGES:
   6.0315101   5.8779477   5.8779486   6.0308206   6.0315037   5.9606339
   6.0308232   6.0718214   5.9274740   5.9274797   5.9776418   6.1546400
   6.0718214   6.0502911   5.9776429
 TTTTTTTTTTTTTTTTTTTTTTTTTTTTTT MOQGAD      TELAPSE        9.66 TCPU        8.12
 TTTTTTTTTTTTTTTTTTTTTTTTTTTTTT SHELLXN     TELAPSE       10.40 TCPU        8.86
 TTTTTTTTTTTTTTTTTTTTTTTTTTTTTT MONMO3      TELAPSE       10.45 TCPU        8.91
 NUMERICALLY INTEGRATED DENSITY     89.9998045693
 TTTTTTTTTTTTTTTTTTTTTTTTTTTTTT NUMDFT      TELAPSE       10.83 TCPU        9.29
 CYC   5 ETOT(AU) -5.705236114540E+02 DETOT -2.29E-01 tst  1.17E-02 PX  6.17E-02
 TTTTTTTTTTTTTTTTTTTTTTTTTTTTTT DIIS        TELAPSE       10.84 TCPU        9.30
 DIIS TEST: 0.24732E+00 AT SCF   CYCLE   5 - DIIS ACTIVE - HISTORY:     5 CYCLES
 TTTTTTTTTTTTTTTTTTTTTTTTTTTTTT FDIK        TELAPSE       11.02 TCPU        9.48
 POSSIBLY CONDUCTING STATE - EFERMI(AU) -1.8242664E-01 (RES. CHARGE  4.79E-10;IT. 14)
 TTTTTTTTTTTTTTTTTTTTTTTTTTTTTT PDIG        TELAPSE       11.12 TCPU        9.58
 CHARGE NORMALIZATION FACTOR   1.00000000
 TOTAL ATOMIC CHARGES:
   5.9318069   6.0062097   6.0062109   5.9887082   5.9318005   5.9800402
   5.9887108   6.1385517   5.9135185   5.9135241   6.0279046   6.0339460
   6.1385520   5.9726103   6.0279055
 TTTTTTTTTTTTTTTTTTTTTTTTTTTTTT MOQGAD      TELAPSE       11.12 TCPU        9.58
 TTTTTTTTTTTTTTTTTTTTTTTTTTTTTT SHELLXN     TELAPSE       11.87 TCPU       10.33
 TTTTTTTTTTTTTTTTTTTTTTTTTTTTTT MONMO3      TELAPSE       11.92 TCPU       10.38
 NUMERICALLY INTEGRATED DENSITY     89.9998070547
 TTTTTTTTTTTTTTTTTTTTTTTTTTTTTT NUMDFT      TELAPSE       12.18 TCPU       10.63
 CYC   6 ETOT(AU) -5.705345075338E+02 DETOT -1.09E-02 tst  3.24E-04 PX  2.61E-02
 TTTTTTTTTTTTTTTTTTTTTTTTTTTTTT DIIS        TELAPSE       12.19 TCPU       10.65
 DIIS TEST: 0.15671E+00 AT SCF   CYCLE   6 - DIIS ACTIVE - HISTORY:     6 CYCLES
 TTTTTTTTTTTTTTTTTTTTTTTTTTTTTT FDIK        TELAPSE       12.37 TCPU       10.83
 POSSIBLY CONDUCTING STATE - EFERMI(AU) -1.8220649E-01 (RES. CHARGE  1.07E-12;IT. 10)
 TTTTTTTTTTTTTTTTTTTTTTTTTTTTTT PDIG        TELAPSE       12.46 TCPU       10.91
 CHARGE NORMALIZATION FACTOR   1.00000000
 TOTAL ATOMIC CHARGES:
   5.9770436   5.9469257   5.9469265   5.9776945   5.9770371   5.9842012
   5.9776971   6.0158380   6.0273765   6.0273819   6.0268478   6.0397614
   6.0158376   6.0325822   6.0268489
 TTTTTTTTTTTTTTTTTTTTTTTTTTTTTT MOQGAD      TELAPSE       12.46 TCPU       10.92
 TTTTTTTTTTTTTTTTTTTTTTTTTTTTTT SHELLXN     TELAPSE       13.21 TCPU       11.66
 TTTTTTTTTTTTTTTTTTTTTTTTTTTTTT MONMO3      TELAPSE       13.26 TCPU       11.71
 NUMERICALLY INTEGRATED DENSITY     89.9998088257
 TTTTTTTTTTTTTTTTTTTTTTTTTTTTTT NUMDFT      TELAPSE       13.52 TCPU       11.97
 CYC   7 ETOT(AU) -5.705522059934E+02 DETOT -1.77E-02 tst  7.30E-04 PX  2.15E-02
 TTTTTTTTTTTTTTTTTTTTTTTTTTTTTT DIIS        TELAPSE       13.54 TCPU       11.99
 DIIS TEST: 0.19734E-01 AT SCF   CYCLE   7 - DIIS ACTIVE - HISTORY:     7 CYCLES
 TTTTTTTTTTTTTTTTTTTTTTTTTTTTTT FDIK        TELAPSE       13.72 TCPU       12.16
 POSSIBLY CONDUCTING STATE - EFERMI(AU) -1.8242677E-01 (RES. CHARGE  6.89E-13;IT. 12)
 TTTTTTTTTTTTTTTTTTTTTTTTTTTTTT PDIG        TELAPSE       13.81 TCPU       12.26
 CHARGE NORMALIZATION FACTOR   1.00000000
 TOTAL ATOMIC CHARGES:
   5.9864161   6.0443886   6.0443897   5.9992461   5.9864098   5.9636198
   5.9992488   5.9837247   6.0191866   6.0191929   5.9884762   6.0168684
   5.9837263   5.9766290   5.9884770
 TTTTTTTTTTTTTTTTTTTTTTTTTTTTTT MOQGAD      TELAPSE       13.81 TCPU       12.26
 TTTTTTTTTTTTTTTTTTTTTTTTTTTTTT SHELLXN     TELAPSE       14.56 TCPU       13.01
 TTTTTTTTTTTTTTTTTTTTTTTTTTTTTT MONMO3      TELAPSE       14.61 TCPU       13.05
 NUMERICALLY INTEGRATED DENSITY     89.9998096051
 TTTTTTTTTTTTTTTTTTTTTTTTTTTTTT NUMDFT      TELAPSE       14.86 TCPU       13.31
 CYC   8 ETOT(AU) -5.705540742308E+02 DETOT -1.87E-03 tst  9.06E-05 PX  1.40E-02
 TTTTTTTTTTTTTTTTTTTTTTTTTTTTTT DIIS        TELAPSE       14.88 TCPU       13.33
 DIIS TEST: 0.71604E-02 AT SCF   CYCLE   8 - DIIS ACTIVE - HISTORY:     8 CYCLES
 TTTTTTTTTTTTTTTTTTTTTTTTTTTTTT FDIK        TELAPSE       15.06 TCPU       13.51
 POSSIBLY CONDUCTING STATE - EFERMI(AU) -1.8247822E-01 (RES. CHARGE  7.82E-14;IT. 10)
 TTTTTTTTTTTTTTTTTTTTTTTTTTTTTT PDIG        TELAPSE       15.15 TCPU       13.60
 CHARGE NORMALIZATION FACTOR   1.00000000
 TOTAL ATOMIC CHARGES:
   5.9840094   5.9936646   5.9936654   5.9941325   5.9840024   5.9781627
   5.9941347   6.0060061   6.0424026   6.0424052   6.0018747   5.9717493
   6.0060003   6.0059137   6.0018762
 TTTTTTTTTTTTTTTTTTTTTTTTTTTTTT MOQGAD      TELAPSE       15.15 TCPU       13.60
 TTTTTTTTTTTTTTTTTTTTTTTTTTTTTT SHELLXN     TELAPSE       15.90 TCPU       14.35
 TTTTTTTTTTTTTTTTTTTTTTTTTTTTTT MONMO3      TELAPSE       15.95 TCPU       14.39
 NUMERICALLY INTEGRATED DENSITY     89.9998093363
 TTTTTTTTTTTTTTTTTTTTTTTTTTTTTT NUMDFT      TELAPSE       16.21 TCPU       14.65
 CYC   9 ETOT(AU) -5.705544588336E+02 DETOT -3.85E-04 tst  2.98E-05 PX  8.85E-03
 TTTTTTTTTTTTTTTTTTTTTTTTTTTTTT DIIS        TELAPSE       16.22 TCPU       14.67
 DIIS TEST: 0.36497E-02 AT SCF   CYCLE   9 - DIIS ACTIVE - HISTORY:     9 CYCLES
 TTTTTTTTTTTTTTTTTTTTTTTTTTTTTT FDIK        TELAPSE       16.41 TCPU       14.85
 POSSIBLY CONDUCTING STATE - EFERMI(AU) -1.8246727E-01 (RES. CHARGE  1.19E-11;IT.  8)
 TTTTTTTTTTTTTTTTTTTTTTTTTTTTTT PDIG        TELAPSE       16.50 TCPU       14.94
 CHARGE NORMALIZATION FACTOR   1.00000000
 TOTAL ATOMIC CHARGES:
   5.9817440   6.0033442   6.0033450   5.9945244   5.9817384   5.9795412
   5.9945276   5.9878176   6.0299814   6.0299911   6.0061923   6.0136436
   5.9878263   5.9995899   6.0061928
 TTTTTTTTTTTTTTTTTTTTTTTTTTTTTT MOQGAD      TELAPSE       16.50 TCPU       14.94
 TTTTTTTTTTTTTTTTTTTTTTTTTTTTTT SHELLXN     TELAPSE       17.25 TCPU       15.69
 TTTTTTTTTTTTTTTTTTTTTTTTTTTTTT MONMO3      TELAPSE       17.30 TCPU       15.74
 NUMERICALLY INTEGRATED DENSITY     89.9998094447
 TTTTTTTTTTTTTTTTTTTTTTTTTTTTTT NUMDFT      TELAPSE       17.67 TCPU       16.11
 CYC  10 ETOT(AU) -5.705548536017E+02 DETOT -3.95E-04 tst  1.07E-05 PX  5.55E-03
 TTTTTTTTTTTTTTTTTTTTTTTTTTTTTT DIIS        TELAPSE       17.69 TCPU       16.13
 DIIS TEST: 0.90420E-03 AT SCF   CYCLE  10 - DIIS ACTIVE - HISTORY:    10 CYCLES
 TTTTTTTTTTTTTTTTTTTTTTTTTTTTTT FDIK        TELAPSE       17.87 TCPU       16.31
 POSSIBLY CONDUCTING STATE - EFERMI(AU) -1.8258456E-01 (RES. CHARGE  8.16E-10;IT. 10)
 TTTTTTTTTTTTTTTTTTTTTTTTTTTTTT PDIG        TELAPSE       17.96 TCPU       16.40
 CHARGE NORMALIZATION FACTOR   1.00000000
 TOTAL ATOMIC CHARGES:
   5.9847069   6.0074008   6.0074024   5.9901063   5.9846989   5.9746221
   5.9901074   5.9871559   6.0342666   6.0342632   6.0032741   6.0081438
   5.9871371   6.0034382   6.0032763
 TTTTTTTTTTTTTTTTTTTTTTTTTTTTTT MOQGAD      TELAPSE       17.96 TCPU       16.40
 TTTTTTTTTTTTTTTTTTTTTTTTTTTTTT SHELLXN     TELAPSE       18.71 TCPU       17.15
 TTTTTTTTTTTTTTTTTTTTTTTTTTTTTT MONMO3      TELAPSE       18.76 TCPU       17.20
 NUMERICALLY INTEGRATED DENSITY     89.9998095418
 TTTTTTTTTTTTTTTTTTTTTTTTTTTTTT NUMDFT      TELAPSE       19.14 TCPU       17.57
 CYC  11 ETOT(AU) -5.705549485235E+02 DETOT -9.49E-05 tst  4.63E-07 PX  1.07E-03
 TTTTTTTTTTTTTTTTTTTTTTTTTTTTTT DIIS        TELAPSE       19.16 TCPU       17.59
 DIIS TEST: 0.10760E-03 AT SCF   CYCLE  11 - DIIS ACTIVE - HISTORY:    11 CYCLES
 TTTTTTTTTTTTTTTTTTTTTTTTTTTTTT FDIK        TELAPSE       19.32 TCPU       17.75
 POSSIBLY CONDUCTING STATE - EFERMI(AU) -1.8251726E-01 (RES. CHARGE  1.47E-10;IT. 10)
 TTTTTTTTTTTTTTTTTTTTTTTTTTTTTT PDIG        TELAPSE       19.41 TCPU       17.84
 CHARGE NORMALIZATION FACTOR   1.00000000
 TOTAL ATOMIC CHARGES:
   5.9857286   6.0111217   6.0111203   5.9923912   5.9857270   5.9752276
   5.9923984   5.9783933   6.0432164   6.0432492   6.0020469   6.0006211
   5.9784513   5.9982629   6.0020443
 TTTTTTTTTTTTTTTTTTTTTTTTTTTTTT MOQGAD      TELAPSE       19.41 TCPU       17.84
 TTTTTTTTTTTTTTTTTTTTTTTTTTTTTT SHELLXN     TELAPSE       20.16 TCPU       18.59
 TTTTTTTTTTTTTTTTTTTTTTTTTTTTTT MONMO3      TELAPSE       20.21 TCPU       18.64
 NUMERICALLY INTEGRATED DENSITY     89.9998097879
 TTTTTTTTTTTTTTTTTTTTTTTTTTTTTT NUMDFT      TELAPSE       20.47 TCPU       18.90
 CYC  12 ETOT(AU) -5.705549288061E+02 DETOT  1.97E-05 tst  1.94E-07 PX  3.09E-03
 TTTTTTTTTTTTTTTTTTTTTTTTTTTTTT DIIS        TELAPSE       20.49 TCPU       18.92
 DIIS TEST: 0.20217E-03 AT SCF   CYCLE  12 - DIIS ACTIVE - HISTORY:    12 CYCLES
 TTTTTTTTTTTTTTTTTTTTTTTTTTTTTT FDIK        TELAPSE       20.67 TCPU       19.10
 POSSIBLY CONDUCTING STATE - EFERMI(AU) -1.8247647E-01 (RES. CHARGE  2.95E-12;IT. 10)
 TTTTTTTTTTTTTTTTTTTTTTTTTTTTTT PDIG        TELAPSE       20.76 TCPU       19.19
 CHARGE NORMALIZATION FACTOR   1.00000000
 TOTAL ATOMIC CHARGES:
   5.9858257   6.0063085   6.0063141   5.9925655   5.9858105   5.9750485
   5.9925597   5.9855992   6.0355896   6.0355447   6.0025644   6.0060126
   5.9854920   6.0021929   6.0025720
 TTTTTTTTTTTTTTTTTTTTTTTTTTTTTT MOQGAD      TELAPSE       20.76 TCPU       19.19
 TTTTTTTTTTTTTTTTTTTTTTTTTTTTTT SHELLXN     TELAPSE       21.51 TCPU       19.93
 TTTTTTTTTTTTTTTTTTTTTTTTTTTTTT MONMO3      TELAPSE       21.56 TCPU       19.98
 NUMERICALLY INTEGRATED DENSITY     89.9998095229
 TTTTTTTTTTTTTTTTTTTTTTTTTTTTTT NUMDFT      TELAPSE       21.93 TCPU       20.36
 CYC  13 ETOT(AU) -5.705549549752E+02 DETOT -2.62E-05 tst  7.18E-08 PX  2.85E-03
 TTTTTTTTTTTTTTTTTTTTTTTTTTTTTT DIIS        TELAPSE       21.95 TCPU       20.38
 DIIS TEST: 0.54802E-04 AT SCF   CYCLE  13 - DIIS ACTIVE - HISTORY:    13 CYCLES
 TTTTTTTTTTTTTTTTTTTTTTTTTTTTTT FDIK        TELAPSE       22.12 TCPU       20.54
 POSSIBLY CONDUCTING STATE - EFERMI(AU) -1.8248653E-01 (RES. CHARGE  0.00E+00;IT. 10)
 TTTTTTTTTTTTTTTTTTTTTTTTTTTTTT PDIG        TELAPSE       22.21 TCPU       20.63
 CHARGE NORMALIZATION FACTOR   1.00000000
 TOTAL ATOMIC CHARGES:
   5.9857796   6.0068358   6.0068251   5.9923336   5.9857954   5.9752704
   5.9923575   5.9847160   6.0363783   6.0365100   6.0023805   6.0057052
   5.9849850   6.0017628   6.0023650
 TTTTTTTTTTTTTTTTTTTTTTTTTTTTTT MOQGAD      TELAPSE       22.21 TCPU       20.63
 TTTTTTTTTTTTTTTTTTTTTTTTTTTTTT SHELLXN     TELAPSE       22.96 TCPU       21.38
 TTTTTTTTTTTTTTTTTTTTTTTTTTTTTT MONMO3      TELAPSE       23.01 TCPU       21.43
 NUMERICALLY INTEGRATED DENSITY     89.9998095462
 TTTTTTTTTTTTTTTTTTTTTTTTTTTTTT NUMDFT      TELAPSE       23.39 TCPU       21.81
 CYC  14 ETOT(AU) -5.705549594030E+02 DETOT -4.43E-06 tst  1.41E-08 PX  2.68E-04
 TTTTTTTTTTTTTTTTTTTTTTTTTTTTTT DIIS        TELAPSE       23.41 TCPU       21.83
 DIIS TEST: 0.23271E-04 AT SCF   CYCLE  14 - DIIS ACTIVE - HISTORY:    14 CYCLES
 TTTTTTTTTTTTTTTTTTTTTTTTTTTTTT FDIK        TELAPSE       23.59 TCPU       22.01
 POSSIBLY CONDUCTING STATE - EFERMI(AU) -1.8248895E-01 (RES. CHARGE  4.08E-12;IT.  8)
 TTTTTTTTTTTTTTTTTTTTTTTTTTTTTT PDIG        TELAPSE       23.68 TCPU       22.10
 CHARGE NORMALIZATION FACTOR   1.00000000
 TOTAL ATOMIC CHARGES:
   5.9857973   6.0069520   6.0069785   5.9923620   5.9857422   5.9751819
   5.9923179   5.9848994   6.0368529   6.0365817   6.0023635   6.0055503
   5.9843103   6.0017096   6.0024007
 TTTTTTTTTTTTTTTTTTTTTTTTTTTTTT MOQGAD      TELAPSE       23.68 TCPU       22.10
 TTTTTTTTTTTTTTTTTTTTTTTTTTTTTT SHELLXN     TELAPSE       24.43 TCPU       22.85
 TTTTTTTTTTTTTTTTTTTTTTTTTTTTTT MONMO3      TELAPSE       24.48 TCPU       22.90
 NUMERICALLY INTEGRATED DENSITY     89.9998095531
 TTTTTTTTTTTTTTTTTTTTTTTTTTTTTT NUMDFT      TELAPSE       24.74 TCPU       23.16
 CYC  15 ETOT(AU) -5.705549603295E+02 DETOT -9.27E-07 tst  1.86E-09 PX  1.36E-04
 TTTTTTTTTTTTTTTTTTTTTTTTTTTTTT DIIS        TELAPSE       24.76 TCPU       23.18
 DIIS TEST: 0.16850E-04 AT SCF   CYCLE  15 - DIIS ACTIVE - HISTORY:    15 CYCLES
 TTTTTTTTTTTTTTTTTTTTTTTTTTTTTT FDIK        TELAPSE       24.94 TCPU       23.36
 POSSIBLY CONDUCTING STATE - EFERMI(AU) -1.8249190E-01 (RES. CHARGE  2.67E-12;IT.  8)
 TTTTTTTTTTTTTTTTTTTTTTTTTTTTTT PDIG        TELAPSE       25.03 TCPU       23.45
 CHARGE NORMALIZATION FACTOR   1.00000000
 TOTAL ATOMIC CHARGES:
   5.9858830   6.0109200   6.0109191   5.9923427   5.9858797   5.9752966
   5.9923483   5.9790325   6.0422050   6.0422283   6.0014933   6.0015411
   5.9790703   5.9993480   6.0014921
 TTTTTTTTTTTTTTTTTTTTTTTTTTTTTT MOQGAD      TELAPSE       25.03 TCPU       23.45
 TTTTTTTTTTTTTTTTTTTTTTTTTTTTTT SHELLXN     TELAPSE       25.78 TCPU       24.20
 TTTTTTTTTTTTTTTTTTTTTTTTTTTTTT MONMO3      TELAPSE       25.83 TCPU       24.25
 NUMERICALLY INTEGRATED DENSITY     89.9998097596
 TTTTTTTTTTTTTTTTTTTTTTTTTTTTTT NUMDFT      TELAPSE       26.09 TCPU       24.50
 CYC  16 ETOT(AU) -5.705549381026E+02 DETOT  2.22E-05 tst  2.44E-09 PX  2.35E-03
 TTTTTTTTTTTTTTTTTTTTTTTTTTTTTT DIIS        TELAPSE       26.11 TCPU       24.53
 DIIS TEST: 0.13765E-03 AT SCF   CYCLE  16 - DIIS ACTIVE - HISTORY:    16 CYCLES
 TTTTTTTTTTTTTTTTTTTTTTTTTTTTTT FDIK        TELAPSE       26.29 TCPU       24.71
 POSSIBLY CONDUCTING STATE - EFERMI(AU) -1.8248867E-01 (RES. CHARGE  5.12E-12;IT.  6)
 TTTTTTTTTTTTTTTTTTTTTTTTTTTTTT PDIG        TELAPSE       26.38 TCPU       24.80
 CHARGE NORMALIZATION FACTOR   1.00000000
 TOTAL ATOMIC CHARGES:
   5.9858041   6.0069291   6.0069292   5.9923272   5.9857995   5.9750676
   5.9923314   5.9845507   6.0367611   6.0367766   6.0024572   6.0055583
   5.9845719   6.0016791   6.0024569
 TTTTTTTTTTTTTTTTTTTTTTTTTTTTTT MOQGAD      TELAPSE       26.39 TCPU       24.80
 TTTTTTTTTTTTTTTTTTTTTTTTTTTTTT SHELLXN     TELAPSE       27.14 TCPU       25.55
 TTTTTTTTTTTTTTTTTTTTTTTTTTTTTT MONMO3      TELAPSE       27.18 TCPU       25.59
 NUMERICALLY INTEGRATED DENSITY     89.9998095534
 TTTTTTTTTTTTTTTTTTTTTTTTTTTTTT NUMDFT      TELAPSE       27.56 TCPU       25.97
 CYC  17 ETOT(AU) -5.705549604525E+02 DETOT -2.23E-05 tst  1.44E-09 PX  2.29E-03
 TTTTTTTTTTTTTTTTTTTTTTTTTTTTTT DIIS        TELAPSE       27.58 TCPU       25.99
 DIIS TEST: 0.15864E-04 AT SCF   CYCLE  17 - DIIS ACTIVE - HISTORY:    17 CYCLES
 TTTTTTTTTTTTTTTTTTTTTTTTTTTTTT FDIK        TELAPSE       27.76 TCPU       26.17
 POSSIBLY CONDUCTING STATE - EFERMI(AU) -1.8249020E-01 (RES. CHARGE  0.00E+00;IT.  8)
 TTTTTTTTTTTTTTTTTTTTTTTTTTTTTT PDIG        TELAPSE       27.85 TCPU       26.26
 CHARGE NORMALIZATION FACTOR   1.00000000
 TOTAL ATOMIC CHARGES:
   5.9859283   6.0108363   6.0108373   5.9923286   5.9859218   5.9753228
   5.9923312   5.9791410   6.0421051   6.0421101   6.0015130   6.0016490
   5.9791403   5.9993212   6.0015140
 TTTTTTTTTTTTTTTTTTTTTTTTTTTTTT MOQGAD      TELAPSE       27.85 TCPU       26.26
 TTTTTTTTTTTTTTTTTTTTTTTTTTTTTT SHELLXN     TELAPSE       28.60 TCPU       27.00
 TTTTTTTTTTTTTTTTTTTTTTTTTTTTTT MONMO3      TELAPSE       28.65 TCPU       27.05
 NUMERICALLY INTEGRATED DENSITY     89.9998097567
 TTTTTTTTTTTTTTTTTTTTTTTTTTTTTT NUMDFT      TELAPSE       28.91 TCPU       27.31
 CYC  18 ETOT(AU) -5.705549391988E+02 DETOT  2.13E-05 tst  4.64E-10 PX  2.27E-03
 TTTTTTTTTTTTTTTTTTTTTTTTTTTTTT DIIS        TELAPSE       28.93 TCPU       27.34
 DIIS TEST: 0.12994E-03 AT SCF   CYCLE  18 - DIIS ACTIVE - HISTORY:    18 CYCLES
 TTTTTTTTTTTTTTTTTTTTTTTTTTTTTT FDIK        TELAPSE       29.12 TCPU       27.52
 POSSIBLY CONDUCTING STATE - EFERMI(AU) -1.8248873E-01 (RES. CHARGE  3.55E-13;IT.  6)
 TTTTTTTTTTTTTTTTTTTTTTTTTTTTTT PDIG        TELAPSE       29.21 TCPU       27.61
 CHARGE NORMALIZATION FACTOR   1.00000000
 TOTAL ATOMIC CHARGES:
   5.9858004   6.0069240   6.0069247   5.9923273   5.9857941   5.9751010
   5.9923300   5.9845621   6.0367560   6.0367618   6.0024377   6.0055916
   5.9845628   6.0016877   6.0024388
 TTTTTTTTTTTTTTTTTTTTTTTTTTTTTT MOQGAD      TELAPSE       29.21 TCPU       27.61
 TTTTTTTTTTTTTTTTTTTTTTTTTTTTTT SHELLXN     TELAPSE       29.96 TCPU       28.36
 TTTTTTTTTTTTTTTTTTTTTTTTTTTTTT MONMO3      TELAPSE       30.01 TCPU       28.41
 NUMERICALLY INTEGRATED DENSITY     89.9998095533
 TTTTTTTTTTTTTTTTTTTTTTTTTTTTTT NUMDFT      TELAPSE       30.38 TCPU       28.78
 CYC  19 ETOT(AU) -5.705549604266E+02 DETOT -2.12E-05 tst  4.94E-10 PX  2.27E-03
 TTTTTTTTTTTTTTTTTTTTTTTTTTTTTT DIIS        TELAPSE       30.41 TCPU       28.81
 DIIS TEST: 0.16089E-04 AT SCF   CYCLE  19 - DIIS ACTIVE - HISTORY:    19 CYCLES
 TTTTTTTTTTTTTTTTTTTTTTTTTTTTTT FDIK        TELAPSE       30.59 TCPU       28.99
 POSSIBLY CONDUCTING STATE - EFERMI(AU) -1.8248924E-01 (RES. CHARGE  3.98E-13;IT.  6)
 TTTTTTTTTTTTTTTTTTTTTTTTTTTTTT PDIG        TELAPSE       30.67 TCPU       29.07
 CHARGE NORMALIZATION FACTOR   1.00000000
 TOTAL ATOMIC CHARGES:
   5.9858030   6.0069637   6.0069651   5.9923257   5.9857966   5.9751036
   5.9923282   5.9845048   6.0368106   6.0368162   6.0024297   6.0055549
   5.9845049   6.0016624   6.0024306
 TTTTTTTTTTTTTTTTTTTTTTTTTTTTTT MOQGAD      TELAPSE       30.68 TCPU       29.07
 TTTTTTTTTTTTTTTTTTTTTTTTTTTTTT SHELLXN     TELAPSE       31.43 TCPU       29.82
 TTTTTTTTTTTTTTTTTTTTTTTTTTTTTT MONMO3      TELAPSE       31.48 TCPU       29.87
 NUMERICALLY INTEGRATED DENSITY     89.9998095549
 TTTTTTTTTTTTTTTTTTTTTTTTTTTTTT NUMDFT      TELAPSE       31.73 TCPU       30.13
 CYC  20 ETOT(AU) -5.705549606245E+02 DETOT -1.98E-07 tst  5.77E-11 PX  1.85E-05
 TTTTTTTTTTTTTTTTTTTTTTTTTTTTTT DIIS        TELAPSE       31.76 TCPU       30.15
 DIIS TEST: 0.14719E-04 AT SCF   CYCLE  20 - DIIS ACTIVE - HISTORY:    20 CYCLES
 TTTTTTTTTTTTTTTTTTTTTTTTTTTTTT FDIK        TELAPSE       31.95 TCPU       30.34
 POSSIBLY CONDUCTING STATE - EFERMI(AU) -1.8248966E-01 (RES. CHARGE  1.71E-13;IT.  6)
 TTTTTTTTTTTTTTTTTTTTTTTTTTTTTT PDIG        TELAPSE       32.04 TCPU       30.43
 CHARGE NORMALIZATION FACTOR   1.00000000
 TOTAL ATOMIC CHARGES:
   5.9859285   6.0107889   6.0107883   5.9923335   5.9859221   5.9753173
   5.9923363   5.9791966   6.0420459   6.0420514   6.0015236   6.0016975
   5.9791968   5.9993483   6.0015250
 TTTTTTTTTTTTTTTTTTTTTTTTTTTTTT MOQGAD      TELAPSE       32.04 TCPU       30.43
 TTTTTTTTTTTTTTTTTTTTTTTTTTTTTT SHELLXN     TELAPSE       32.79 TCPU       31.18
 TTTTTTTTTTTTTTTTTTTTTTTTTTTTTT MONMO3      TELAPSE       32.84 TCPU       31.23
 NUMERICALLY INTEGRATED DENSITY     89.9998097552
 TTTTTTTTTTTTTTTTTTTTTTTTTTTTTT NUMDFT      TELAPSE       33.21 TCPU       31.60
 CYC  21 ETOT(AU) -5.705549398255E+02 DETOT  2.08E-05 tst  3.22E-11 PX  2.23E-03
 TTTTTTTTTTTTTTTTTTTTTTTTTTTTTT DIIS        TELAPSE       33.24 TCPU       31.63
 DIIS TEST: 0.12555E-03 AT SCF   CYCLE  21 - DIIS ACTIVE - HISTORY:    21 CYCLES
 TTTTTTTTTTTTTTTTTTTTTTTTTTTTTT FDIK        TELAPSE       33.42 TCPU       31.81
 POSSIBLY CONDUCTING STATE - EFERMI(AU) -1.8248932E-01 (RES. CHARGE  7.11E-15;IT.  6)
 TTTTTTTTTTTTTTTTTTTTTTTTTTTTTT PDIG        TELAPSE       33.51 TCPU       31.90
 CHARGE NORMALIZATION FACTOR   1.00000000
 TOTAL ATOMIC CHARGES:
   5.9859286   6.0107681   6.0107694   5.9923351   5.9859222   5.9753160
   5.9923377   5.9792247   6.0420157   6.0420214   6.0015288   6.0017173
   5.9792247   5.9993606   6.0015298
 TTTTTTTTTTTTTTTTTTTTTTTTTTTTTT MOQGAD      TELAPSE       33.51 TCPU       31.90
 TTTTTTTTTTTTTTTTTTTTTTTTTTTTTT SHELLXN     TELAPSE       34.26 TCPU       32.65
 TTTTTTTTTTTTTTTTTTTTTTTTTTTTTT MONMO3      TELAPSE       34.31 TCPU       32.70
 NUMERICALLY INTEGRATED DENSITY     89.9998097544
 TTTTTTTTTTTTTTTTTTTTTTTTTTTTTT NUMDFT      TELAPSE       34.56 TCPU       32.95
 CYC  22 ETOT(AU) -5.705549401189E+02 DETOT -2.93E-07 tst  2.25E-11 PX  8.42E-06
 TTTTTTTTTTTTTTTTTTTTTTTTTTTTTT DIIS        TELAPSE       34.59 TCPU       32.98
 DIIS TEST: 0.12348E-03 AT SCF   CYCLE  22 - DIIS ACTIVE - HISTORY:    21 CYCLES
 TTTTTTTTTTTTTTTTTTTTTTTTTTTTTT FDIK        TELAPSE       34.77 TCPU       33.16
 POSSIBLY CONDUCTING STATE - EFERMI(AU) -1.8248918E-01 (RES. CHARGE  6.40E-11;IT.  4)
 TTTTTTTTTTTTTTTTTTTTTTTTTTTTTT PDIG        TELAPSE       34.86 TCPU       33.25
 CHARGE NORMALIZATION FACTOR   1.00000000
 TOTAL ATOMIC CHARGES:
   5.9858028   6.0069591   6.0069601   5.9923258   5.9857964   5.9751031
   5.9923284   5.9845122   6.0368035   6.0368090   6.0024308   6.0055591
   5.9845123   6.0016657   6.0024318
 TTTTTTTTTTTTTTTTTTTTTTTTTTTTTT MOQGAD      TELAPSE       34.86 TCPU       33.25
 TTTTTTTTTTTTTTTTTTTTTTTTTTTTTT SHELLXN     TELAPSE       35.62 TCPU       34.00
 TTTTTTTTTTTTTTTTTTTTTTTTTTTTTT MONMO3      TELAPSE       35.68 TCPU       34.06
 NUMERICALLY INTEGRATED DENSITY     89.9998095547
 TTTTTTTTTTTTTTTTTTTTTTTTTTTTTT NUMDFT      TELAPSE       36.05 TCPU       34.44
 CYC  23 ETOT(AU) -5.705549606004E+02 DETOT -2.05E-05 tst  3.69E-12 PX  2.23E-03
 TTTTTTTTTTTTTTTTTTTTTTTTTTTTTT DIIS        TELAPSE       36.08 TCPU       34.46
 DIIS TEST: 0.14888E-04 AT SCF   CYCLE  23 - DIIS ACTIVE - HISTORY:    22 CYCLES
 TTTTTTTTTTTTTTTTTTTTTTTTTTTTTT FDIK        TELAPSE       36.26 TCPU       34.63
 POSSIBLY CONDUCTING STATE - EFERMI(AU) -1.8248922E-01 (RES. CHARGE  8.09E-12;IT.  4)
 TTTTTTTTTTTTTTTTTTTTTTTTTTTTTT PDIG        TELAPSE       36.35 TCPU       34.71
 CHARGE NORMALIZATION FACTOR   1.00000000
 TOTAL ATOMIC CHARGES:
   5.9858028   6.0069624   6.0069634   5.9923256   5.9857964   5.9751033
   5.9923282   5.9845075   6.0368085   6.0368141   6.0024300   6.0055557
   5.9845076   6.0016636   6.0024310
 TTTTTTTTTTTTTTTTTTTTTTTTTTTTTT MOQGAD      TELAPSE       36.35 TCPU       34.71
 TTTTTTTTTTTTTTTTTTTTTTTTTTTTTT SHELLXN     TELAPSE       37.10 TCPU       35.46
 TTTTTTTTTTTTTTTTTTTTTTTTTTTTTT MONMO3      TELAPSE       37.15 TCPU       35.51
 NUMERICALLY INTEGRATED DENSITY     89.9998095548
 TTTTTTTTTTTTTTTTTTTTTTTTTTTTTT NUMDFT      TELAPSE       37.52 TCPU       35.88
 CYC  24 ETOT(AU) -5.705549606168E+02 DETOT -1.63E-08 tst  4.11E-13 PX  1.52E-06
 TTTTTTTTTTTTTTTTTTTTTTTTTTTTTT DIIS        TELAPSE       37.55 TCPU       35.91
 DIIS TEST: 0.14771E-04 AT SCF   CYCLE  24 - DIIS ACTIVE - HISTORY:    20 CYCLES
 TTTTTTTTTTTTTTTTTTTTTTTTTTTTTT FDIK        TELAPSE       37.73 TCPU       36.09
 POSSIBLY CONDUCTING STATE - EFERMI(AU) -1.8248925E-01 (RES. CHARGE  2.82E-12;IT.  4)
 TTTTTTTTTTTTTTTTTTTTTTTTTTTTTT PDIG        TELAPSE       37.81 TCPU       36.17
 CHARGE NORMALIZATION FACTOR   1.00000000
 TOTAL ATOMIC CHARGES:
   5.9858028   6.0069643   6.0069652   5.9923254   5.9857964   5.9751034
   5.9923280   5.9845049   6.0368113   6.0368168   6.0024295   6.0055539
   5.9845050   6.0016625   6.0024306
 TTTTTTTTTTTTTTTTTTTTTTTTTTTTTT MOQGAD      TELAPSE       37.81 TCPU       36.17
 TTTTTTTTTTTTTTTTTTTTTTTTTTTTTT SHELLXN     TELAPSE       38.56 TCPU       36.92
 TTTTTTTTTTTTTTTTTTTTTTTTTTTTTT MONMO3      TELAPSE       38.62 TCPU       36.97
 NUMERICALLY INTEGRATED DENSITY     89.9998095549
 TTTTTTTTTTTTTTTTTTTTTTTTTTTTTT NUMDFT      TELAPSE       38.87 TCPU       37.23
 CYC  25 ETOT(AU) -5.705549606260E+02 DETOT -9.26E-09 tst  1.26E-13 PX  8.54E-07
 TTTTTTTTTTTTTTTTTTTTTTTTTTTTTT DIIS        TELAPSE       38.90 TCPU       37.25
 DIIS TEST: 0.14707E-04 AT SCF   CYCLE  25 - DIIS ACTIVE - HISTORY:    21 CYCLES
 TTTTTTTTTTTTTTTTTTTTTTTTTTTTTT FDIK        TELAPSE       39.08 TCPU       37.43
 POSSIBLY CONDUCTING STATE - EFERMI(AU) -1.8248929E-01 (RES. CHARGE  9.24E-12;IT.  4)
 TTTTTTTTTTTTTTTTTTTTTTTTTTTTTT PDIG        TELAPSE       39.17 TCPU       37.52
 CHARGE NORMALIZATION FACTOR   1.00000000
 TOTAL ATOMIC CHARGES:
   5.9859286   6.0107670   6.0107680   5.9923351   5.9859222   5.9753159
   5.9923377   5.9792264   6.0420140   6.0420195   6.0015291   6.0017184
   5.9792265   5.9993614   6.0015301
 TTTTTTTTTTTTTTTTTTTTTTTTTTTTTT MOQGAD      TELAPSE       39.17 TCPU       37.52
 TTTTTTTTTTTTTTTTTTTTTTTTTTTTTT SHELLXN     TELAPSE       39.92 TCPU       38.27
 TTTTTTTTTTTTTTTTTTTTTTTTTTTTTT MONMO3      TELAPSE       39.97 TCPU       38.32
 NUMERICALLY INTEGRATED DENSITY     89.9998097544
 TTTTTTTTTTTTTTTTTTTTTTTTTTTTTT NUMDFT      TELAPSE       40.34 TCPU       38.69
 CYC  26 ETOT(AU) -5.705549401367E+02 DETOT  2.05E-05 tst  4.16E-13 PX  2.22E-03
 TTTTTTTTTTTTTTTTTTTTTTTTTTTTTT DIIS        TELAPSE       40.44 TCPU       38.80
 DIIS TEST: 0.12335E-03 AT SCF   CYCLE  26 - DIIS ACTIVE - HISTORY:    21 CYCLES
 TTTTTTTTTTTTTTTTTTTTTTTTTTTTTT FDIK        TELAPSE       40.63 TCPU       38.98
 POSSIBLY CONDUCTING STATE - EFERMI(AU) -1.8248924E-01 (RES. CHARGE  1.17E-11;IT.  4)
 TTTTTTTTTTTTTTTTTTTTTTTTTTTTTT PDIG        TELAPSE       40.72 TCPU       39.07
 CHARGE NORMALIZATION FACTOR   1.00000000
 TOTAL ATOMIC CHARGES:
   5.9858028   6.0069639   6.0069648   5.9923255   5.9857964   5.9751034
   5.9923281   5.9845054   6.0368107   6.0368162   6.0024296   6.0055543
   5.9845055   6.0016628   6.0024307
 TTTTTTTTTTTTTTTTTTTTTTTTTTTTTT MOQGAD      TELAPSE       40.72 TCPU       39.07
 TTTTTTTTTTTTTTTTTTTTTTTTTTTTTT SHELLXN     TELAPSE       41.47 TCPU       39.82
 TTTTTTTTTTTTTTTTTTTTTTTTTTTTTT MONMO3      TELAPSE       41.52 TCPU       39.87
 NUMERICALLY INTEGRATED DENSITY     89.9998095549
 TTTTTTTTTTTTTTTTTTTTTTTTTTTTTT NUMDFT      TELAPSE       41.78 TCPU       40.13
 CYC  27 ETOT(AU) -5.705549606241E+02 DETOT -2.05E-05 tst  5.19E-13 PX  2.22E-03
 TTTTTTTTTTTTTTTTTTTTTTTTTTTTTT DIIS        TELAPSE       41.81 TCPU       40.16
 DIIS TEST: 0.14721E-04 AT SCF   CYCLE  27 - DIIS ACTIVE - HISTORY:    22 CYCLES
 TTTTTTTTTTTTTTTTTTTTTTTTTTTTTT FDIK        TELAPSE       42.00 TCPU       40.34
 POSSIBLY CONDUCTING STATE - EFERMI(AU) -1.8248925E-01 (RES. CHARGE  3.41E-13;IT.  4)
 TTTTTTTTTTTTTTTTTTTTTTTTTTTTTT PDIG        TELAPSE       42.08 TCPU       40.43
 CHARGE NORMALIZATION FACTOR   1.00000000
 TOTAL ATOMIC CHARGES:
   5.9858028   6.0069645   6.0069655   5.9923254   5.9857964   5.9751034
   5.9923280   5.9845045   6.0368116   6.0368172   6.0024295   6.0055536
   5.9845046   6.0016624   6.0024305
 TTTTTTTTTTTTTTTTTTTTTTTTTTTTTT MOQGAD      TELAPSE       42.09 TCPU       40.43
 TTTTTTTTTTTTTTTTTTTTTTTTTTTTTT SHELLXN     TELAPSE       42.83 TCPU       41.18
 TTTTTTTTTTTTTTTTTTTTTTTTTTTTTT MONMO3      TELAPSE       42.90 TCPU       41.24
 NUMERICALLY INTEGRATED DENSITY     89.9998095549
 TTTTTTTTTTTTTTTTTTTTTTTTTTTTTT NUMDFT      TELAPSE       43.15 TCPU       41.50
 CYC  28 ETOT(AU) -5.705549606272E+02 DETOT -3.16E-09 tst  1.51E-14 PX  2.97E-07
 TTTTTTTTTTTTTTTTTTTTTTTTTTTTTT DIIS        TELAPSE       43.19 TCPU       41.53
 DIIS TEST: 0.14698E-04 AT SCF   CYCLE  28 - DIIS ACTIVE - HISTORY:    22 CYCLES
 TTTTTTTTTTTTTTTTTTTTTTTTTTTTTT FDIK        TELAPSE       43.37 TCPU       41.71
 POSSIBLY CONDUCTING STATE - EFERMI(AU) -1.8248926E-01 (RES. CHARGE  2.77E-13;IT.  4)
 TTTTTTTTTTTTTTTTTTTTTTTTTTTTTT PDIG        TELAPSE       43.46 TCPU       41.80
 CHARGE NORMALIZATION FACTOR   1.00000000
 TOTAL ATOMIC CHARGES:
   5.9858028   6.0069651   6.0069661   5.9923254   5.9857964   5.9751035
   5.9923280   5.9845037   6.0368125   6.0368181   6.0024293   6.0055530
   5.9845038   6.0016620   6.0024303
 TTTTTTTTTTTTTTTTTTTTTTTTTTTTTT MOQGAD      TELAPSE       43.46 TCPU       41.80
 TTTTTTTTTTTTTTTTTTTTTTTTTTTTTT SHELLXN     TELAPSE       44.21 TCPU       42.55
 TTTTTTTTTTTTTTTTTTTTTTTTTTTTTT MONMO3      TELAPSE       44.26 TCPU       42.60
 NUMERICALLY INTEGRATED DENSITY     89.9998095549
 TTTTTTTTTTTTTTTTTTTTTTTTTTTTTT NUMDFT      TELAPSE       44.52 TCPU       42.86
 CYC  29 ETOT(AU) -5.705549606301E+02 DETOT -2.93E-09 tst  1.25E-14 PX  2.69E-07
 TTTTTTTTTTTTTTTTTTTTTTTTTTTTTT DIIS        TELAPSE       44.55 TCPU       42.89
 DIIS TEST: 0.14678E-04 AT SCF   CYCLE  29 - DIIS ACTIVE - HISTORY:    23 CYCLES
 TTTTTTTTTTTTTTTTTTTTTTTTTTTTTT FDIK        TELAPSE       44.74 TCPU       43.07
 POSSIBLY CONDUCTING STATE - EFERMI(AU) -1.8248927E-01 (RES. CHARGE  8.24E-13;IT.  4)
 TTTTTTTTTTTTTTTTTTTTTTTTTTTTTT PDIG        TELAPSE       44.82 TCPU       43.16
 CHARGE NORMALIZATION FACTOR   1.00000000
 TOTAL ATOMIC CHARGES:
   5.9858028   6.0069661   6.0069671   5.9923253   5.9857964   5.9751035
   5.9923279   5.9845023   6.0368140   6.0368196   6.0024291   6.0055520
   5.9845024   6.0016614   6.0024301
 TTTTTTTTTTTTTTTTTTTTTTTTTTTTTT MOQGAD      TELAPSE       44.82 TCPU       43.16
 TTTTTTTTTTTTTTTTTTTTTTTTTTTTTT SHELLXN     TELAPSE       45.58 TCPU       43.91
 TTTTTTTTTTTTTTTTTTTTTTTTTTTTTT MONMO3      TELAPSE       45.62 TCPU       43.96
 NUMERICALLY INTEGRATED DENSITY     89.9998095550
 TTTTTTTTTTTTTTTTTTTTTTTTTTTTTT NUMDFT      TELAPSE       46.00 TCPU       44.33
 CYC  30 ETOT(AU) -5.705549606352E+02 DETOT -5.05E-09 tst  3.72E-14 PX  4.64E-07
 TTTTTTTTTTTTTTTTTTTTTTTTTTTTTT DIIS        TELAPSE       46.03 TCPU       44.36
 DIIS TEST: 0.14643E-04 AT SCF   CYCLE  30 - DIIS ACTIVE - HISTORY:    24 CYCLES
 TTTTTTTTTTTTTTTTTTTTTTTTTTTTTT FDIK        TELAPSE       46.21 TCPU       44.55
 POSSIBLY CONDUCTING STATE - EFERMI(AU) -1.8248929E-01 (RES. CHARGE  1.52E-12;IT.  4)
 TTTTTTTTTTTTTTTTTTTTTTTTTTTTTT PDIG        TELAPSE       46.30 TCPU       44.63
 CHARGE NORMALIZATION FACTOR   1.00000000
 TOTAL ATOMIC CHARGES:
   5.9859286   6.0107669   6.0107678   5.9923351   5.9859222   5.9753159
   5.9923377   5.9792266   6.0420138   6.0420193   6.0015292   6.0017186
   5.9792267   5.9993615   6.0015302
 TTTTTTTTTTTTTTTTTTTTTTTTTTTTTT MOQGAD      TELAPSE       46.30 TCPU       44.63
 TTTTTTTTTTTTTTTTTTTTTTTTTTTTTT SHELLXN     TELAPSE       47.05 TCPU       45.38
 TTTTTTTTTTTTTTTTTTTTTTTTTTTTTT MONMO3      TELAPSE       47.10 TCPU       45.43
 NUMERICALLY INTEGRATED DENSITY     89.9998097544
 TTTTTTTTTTTTTTTTTTTTTTTTTTTTTT NUMDFT      TELAPSE       47.46 TCPU       45.79
 CYC  31 ETOT(AU) -5.705549401385E+02 DETOT  2.05E-05 tst  6.95E-14 PX  2.22E-03
 TTTTTTTTTTTTTTTTTTTTTTTTTTTTTT DIIS        TELAPSE       47.50 TCPU       45.83
 DIIS TEST: 0.12334E-03 AT SCF   CYCLE  31 - DIIS ACTIVE - HISTORY:    25 CYCLES
 TTTTTTTTTTTTTTTTTTTTTTTTTTTTTT FDIK        TELAPSE       47.69 TCPU       46.02
 POSSIBLY CONDUCTING STATE - EFERMI(AU) -1.8248929E-01 (RES. CHARGE  7.11E-15;IT.  4)
 TTTTTTTTTTTTTTTTTTTTTTTTTTTTTT PDIG        TELAPSE       47.77 TCPU       46.10
 CHARGE NORMALIZATION FACTOR   1.00000000
 TOTAL ATOMIC CHARGES:
   5.9859286   6.0107668   6.0107678   5.9923351   5.9859222   5.9753159
   5.9923377   5.9792266   6.0420137   6.0420193   6.0015292   6.0017186
   5.9792267   5.9993615   6.0015302
 TTTTTTTTTTTTTTTTTTTTTTTTTTTTTT MOQGAD      TELAPSE       47.77 TCPU       46.10
 TTTTTTTTTTTTTTTTTTTTTTTTTTTTTT SHELLXN     TELAPSE       48.52 TCPU       46.85
 TTTTTTTTTTTTTTTTTTTTTTTTTTTTTT MONMO3      TELAPSE       48.57 TCPU       46.90
 NUMERICALLY INTEGRATED DENSITY     89.9998097544
 TTTTTTTTTTTTTTTTTTTTTTTTTTTTTT NUMDFT      TELAPSE       48.83 TCPU       47.15
 CYC  32 ETOT(AU) -5.705549401391E+02 DETOT -6.07E-10 tst  1.03E-16 PX  1.82E-08
 TTTTTTTTTTTTTTTTTTTTTTTTTTTTTT DIIS        TELAPSE       48.87 TCPU       47.19
 DIIS TEST: 0.12333E-03 AT SCF   CYCLE  32 - DIIS ACTIVE - HISTORY:    26 CYCLES
 TTTTTTTTTTTTTTTTTTTTTTTTTTTTTT FDIK        TELAPSE       49.05 TCPU       47.37
 POSSIBLY CONDUCTING STATE - EFERMI(AU) -1.8248928E-01 (RES. CHARGE  1.92E-13;IT.  4)
 TTTTTTTTTTTTTTTTTTTTTTTTTTTTTT PDIG        TELAPSE       49.14 TCPU       47.46
 CHARGE NORMALIZATION FACTOR   1.00000000
 TOTAL ATOMIC CHARGES:
   5.9859286   6.0107665   6.0107674   5.9923352   5.9859222   5.9753159
   5.9923378   5.9792272   6.0420132   6.0420187   6.0015293   6.0017190
   5.9792273   5.9993617   6.0015303
 TTTTTTTTTTTTTTTTTTTTTTTTTTTTTT MOQGAD      TELAPSE       49.14 TCPU       47.46
 TTTTTTTTTTTTTTTTTTTTTTTTTTTTTT SHELLXN     TELAPSE       49.89 TCPU       48.21
 +++ ENERGIES IN A.U. +++
 ::: EXT EL-POLE                                  -7.9644545150427E+02
 ::: EXT EL-SPHEROPOLE                             6.2172315236992E+00
 ::: BIELET ZONE E-E                               1.1920720559839E+03
 ::: TOTAL E-E                                     4.0184383600334E+02
 ::: TOTAL E-N + N-E                              -1.5827702579582E+03
 ::: TOTAL N-N                                     1.2357394265918E+02
 ::: KINETIC ENERGY                                5.6707221977968E+02
 ::: PSEUDO TOTAL   ENERGY                        -4.9028025951603E+02
 ::: VIRIAL COEFFICIENT                            1.0726266422667E+00
 TTTTTTTTTTTTTTTTTTTTTTTTTTTTTT MONMO3      TELAPSE       49.94 TCPU       48.26
 NUMERICALLY INTEGRATED DENSITY     89.9998097544
 TTTTTTTTTTTTTTTTTTTTTTTTTTTTTT NUMDFT      TELAPSE       50.19 TCPU       48.51
 CYC  33 ETOT(AU) -5.705549401448E+02 DETOT -5.65E-09 tst  8.35E-15 PX  1.82E-08

 == SCF ENDED - CONVERGENCE ON ENERGY      E(AU) -5.7055494014475E+02 CYCLES  33


 ENERGY EXPRESSION=HARTREE+FOCK EXCH*0.00000+(PBE        EXCH)*1.00000+PBE        CORR


 TOTAL ENERGY(DFT)(AU)( 33) -5.7055494014475E+02 DE-5.7E-09 tester 8.3E-15
 TTTTTTTTTTTTTTTTTTTTTTTTTTTTTT EDFT        TELAPSE       50.19 TCPU       48.52

 *******************************************************************************
 *                             FORCE CALCULATION                               *
 *******************************************************************************

 TTTTTTTTTTTTTTTTTTTTTTTTTTTTTT NUMDFG      TELAPSE       50.82 TCPU       49.14
 INFORMATION **** EXCPOG **** EXCH. BIPO BUFFER LENGTH (WORDS) =           0
 INFORMATION **** GENPOG **** BIPO BUFFER LENGTH (WORDS) =     1107100
 TTTTTTTTTTTTTTTTTTTTTTTTTTTTTT SHELXG      TELAPSE       53.35 TCPU       51.68

 CARTESIAN FORCES IN HARTREE/BOHR (ANALYTICAL)
   ATOM                     X                   Y                   Z
   1   6             1.405232106968E-02 -3.174109802075E-02  2.720508614321E-09
   2   6             1.678566785471E-02 -8.076976106220E-02 -8.834465106822E-09
   3   6            -1.678567118404E-02 -8.076977120548E-02  1.815008981351E-09
   4   6            -1.544179379446E-02  3.422304110335E-02 -1.544988774051E-08
   5   6            -1.405230450158E-02 -3.174112804033E-02  1.698883433140E-08
   6   6            -1.282518974355E-08 -2.012833805855E-02 -5.359350925325E-09
   7   6             1.544180286418E-02  3.422311362279E-02  2.173834064719E-09
   8   6            -2.089499352665E-02  3.055670411386E-02  7.986896707570E-09
   9   6            -4.151188819301E-02  6.470418450055E-02 -3.944476004796E-10
  10   6             4.151190022400E-02  6.470416818677E-02  2.308017354205E-09
  11   6            -2.339290510301E-02 -1.739153358662E-02 -9.766017519284E-09
  12   6            -1.650656183960E-08 -5.912617354928E-03  9.794067436006E-09
  13   6             2.089498157115E-02  3.055669504726E-02 -1.816690859886E-08
  14   6            -2.358792217105E-08  2.687787125603E-02  2.546864956638E-10
  15   6             2.339293563859E-02 -1.739153050141E-02  1.392915782075E-08

 RESULTANT FORCE    -1.016964290557E-13  3.296252160112E-13 -6.568530441621E-14

 SYMMETRY ALLOWED FORCES (ANALYTICAL) (DIRECTION, FORCE)

    1  3.5726168E-02    2 -3.8307768E-03    3  2.8159985E-09    4  8.3857220E-02
[...]
   8 C    1     2.4316     4.5950   14 C   -1 0 0
   8 C    1     2.4611     4.6508    9 C    0 0 0
   8 C    1     2.5220     4.7659   11 C    0 0 0

   9 C    1     1.3068     2.4695    2 C    0 0 0
   9 C    1     1.3927     2.6319    1 C    0 0 0
   9 C    1     2.3686     4.4761   14 C   -1 0 0
   9 C    1     2.3914     4.5191   15 C   -1 0 0
   9 C    1     2.4611     4.6508    8 C    0 0 0
   9 C    1     2.5160     4.7545   12 C    0 0 0

  10 C    1     1.3068     2.4695    3 C    0 0 0
  10 C    1     1.3927     2.6317    5 C    0 0 0
  10 C    1     2.3685     4.4759   14 C    0 0 0
  10 C    1     2.3914     4.5190   11 C    0 0 0
  10 C    1     2.4610     4.6506   13 C    0 0 0
  10 C    1     2.5160     4.7546   12 C    0-1 0

  11 C    1     1.4394     2.7200    3 C    0 0 0
  11 C    1     1.4570     2.7533    4 C    0 0 0
  11 C    1     1.4645     2.7675    6 C    0 0 0
  11 C    1     2.3914     4.5190   10 C    0 0 0
  11 C    1     2.4574     4.6438   14 C    0 0 0
  11 C    1     2.5220     4.7659    8 C    0 0 0

  12 C    1     1.4869     2.8099    4 C    0 0 0
  12 C    1     1.4870     2.8100    7 C    0 0 0
  12 C    1     2.5160     4.7545    9 C    0 0 0
  12 C    1     2.5160     4.7546   10 C    0 1 0
  12 C    1     2.5240     4.7696   15 C    0 0 0
  12 C    1     2.5240     4.7696   11 C    0 0 0

  13 C    1     1.3831     2.6137    5 C    0 0 0
  13 C    1     1.4663     2.7708    7 C    0-1 0
  13 C    1     2.2256     4.2058    8 C    1 0 0
  13 C    1     2.4315     4.5949   14 C    0 0 0
  13 C    1     2.4610     4.6506   10 C    0 0 0
  13 C    1     2.5221     4.7660   15 C    0-1 0

  14 C    1     1.4065     2.6578    6 C    0 0 0
  14 C    1     1.4236     2.6902    5 C    0 0 0
  14 C    1     1.4236     2.6903    1 C    1 0 0
  14 C    1     2.3685     4.4759   10 C    0 0 0
  14 C    1     2.3686     4.4761    9 C    1 0 0
  14 C    1     2.4315     4.5949   13 C    0 0 0

  15 C    1     1.4394     2.7201    2 C    1 0 0
  15 C    1     1.4570     2.7533    7 C    0 0 0
  15 C    1     1.4645     2.7675    6 C    0 0 0
  15 C    1     2.3914     4.5191    9 C    1 0 0
  15 C    1     2.4575     4.6439   14 C    0 0 0
  15 C    1     2.5221     4.7660   13 C    0 1 0


 FINAL OPTIMIZED GEOMETRY - DIMENSIONALITY OF THE SYSTEM      3
 (NON PERIODIC DIRECTION: LATTICE PARAMETER FORMALLY SET TO 500)
 *******************************************************************************
 LATTICE PARAMETERS (ANGSTROMS AND DEGREES) - BOHR = 0.5291772083 ANGSTROM
 PRIMITIVE CELL - CENTRING CODE 1/0 VOLUME=   412.228566 - DENSITY  0.725 g/cm^3
         A              B              C           ALPHA      BETA       GAMMA 
     7.40317242     7.40317242     8.68503800    90.000000  90.000000 120.000000
 *******************************************************************************
 ATOMS IN THE ASYMMETRIC UNIT   15 - ATOMS IN THE UNIT CELL:   15
     ATOM                 X/A                 Y/B                 Z/C    
 *******************************************************************************
      1 T   6 C     1.048196738933E-01 -4.535561275910E-01  2.816297217002E-01
      2 T   6 C     1.200012903424E-01 -1.213424457904E-01  2.869596374540E-01
      3 T   6 C     4.546765777569E-01  2.133292080016E-01  3.128995260120E-01
      4 T   6 C     4.317178436098E-01 -4.514038176436E-01  3.037107184419E-01
      5 T   6 C    -2.131221690261E-01  2.285113228385E-01  3.184580209231E-01
      6 T   6 C    -2.250436198842E-01 -4.416170905891E-01  2.999804775107E-01
      7 T   6 C    -2.152589149261E-01 -9.837824111610E-02  2.963016269140E-01
      8 T   6 C     2.034174405677E-01  4.302612227829E-01  2.944900513175E-01
      9 T   6 C     2.064478655202E-01 -2.369146989643E-01  2.712944738655E-01
     10 T   6 C    -4.297600147169E-01  1.268860737769E-01  3.286839466843E-01
     11 T   6 C    -4.531119928568E-01  4.365526344565E-01  3.066045777663E-01
     12 T   6 C    -4.470512132982E-01 -2.196154748004E-01  2.999852872354E-01
     13 T   6 C    -9.693180894832E-02  1.299201488002E-01  3.056073394169E-01
     14 T   6 C    -1.153614437535E-01  4.486922015410E-01  3.000507509285E-01
     15 T   6 C    -1.032172920574E-01 -2.135471379243E-01  2.933438438296E-01

 T = ATOM BELONGING TO THE ASYMMETRIC UNIT
 INFORMATION **** fort.34 **** GEOMETRY OUTPUT FILE

 DIRECT LATTICE VECTORS CARTESIAN COMPONENTS (ANGSTROM)
          X                    Y                    Z
   0.370158621205E+01  -0.641133538787E+01   0.000000000000E+00
   0.370158621205E+01   0.641133538787E+01   0.000000000000E+00
   0.000000000000E+00   0.000000000000E+00   0.868503800000E+01


 CARTESIAN COORDINATES - PRIMITIVE CELL
 *******************************************************************************
 *      ATOM          X(ANGSTROM)         Y(ANGSTROM)         Z(ANGSTROM)
 *******************************************************************************
    1     6 C     2.410708163403E+00  2.831400852082E+00  2.445964834896E+00
    2     6 C     3.696621809534E+00  4.863999751758E+00  2.492255355755E+00
    3     6 C     2.472681006133E+00 -1.547358932480E+00  2.717544273596E+00
    4     6 C     3.628716881995E+00  7.493462292808E-01  2.637739130675E+00
    5     6 C     3.758550491616E+00 -3.579874953007E+00  2.765820013122E+00
    6     6 C     4.935470330095E+00 -1.388525156803E+00  2.605341846438E+00
    7     6 C     6.242217451706E+00  7.493612001560E-01  2.573390889210E+00
    8     6 C     2.345616203128E+00  1.454371568434E+00  2.557657286314E+00
    9     6 C     3.588810601447E+00  3.568789288531E+00  2.356202814712E+00
   10     6 C     2.580472208277E+00 -2.842490622189E+00  2.854632566943E+00
   11     6 C     3.640290319314E+00 -7.073970794401E-01  2.662872408874E+00
   12     6 C     4.935448203400E+00  1.458166798696E+00  2.605383619081E+00
   13     6 C     3.823695396003E+00 -4.956911403346E+00  2.654211355915E+00
   14     6 C     4.935438749127E+00 -2.794998291135E+00  2.605952173743E+00
   15     6 C     6.230641577610E+00 -7.073616451446E-01  2.547702430726E+00

 ****    1 SYMMOPS - TRANSLATORS IN FRACTIONAL UNITS
 **** MATRICES AND TRANSLATORS IN THE CRYSTALLOGRAPHIC REFERENCE FRAME
   V INV                    ROTATION MATRICES                   TRANSLATORS
   1   1  1.00  0.00  0.00  0.00  1.00  0.00  0.00  0.00  1.00  0.00  0.00  0.00
 TTTTTTTTTTTTTTTTTTTTTTTTTTTTTT END         TELAPSE      605.90 TCPU      599.65
 EEEEEEEEEE TERMINATION  DATE 31 10 2022 TIME 20:07:53.6
NODE    0 CPU TIME =       599.648
    TOTAL CPU TIME =     77073.808
Note: The following floating-point exceptions are signalling: IEEE_UNDERFLOW_FLAG IEEE_DENORMAL
Note: The following floating-point exceptions are signalling: IEEE_UNDERFLOW_FLAG IEEE_DENORMAL
Note: The following floating-point exceptions are signalling: IEEE_UNDERFLOW_FLAG IEEE_DENORMAL
Note: The following floating-point exceptions are signalling: IEEE_UNDERFLOW_FLAG IEEE_DENORMAL
Note: The following floating-point exceptions are signalling: IEEE_UNDERFLOW_FLAG IEEE_DENORMAL
Note: The following floating-point exceptions are signalling: IEEE_UNDERFLOW_FLAG IEEE_DENORMAL
Note: The following floating-point exceptions are signalling: IEEE_UNDERFLOW_FLAG IEEE_DENORMAL
Note: The following floating-point exceptions are signalling: IEEE_UNDERFLOW_FLAG IEEE_DENORMAL
Note: The following floating-point exceptions are signalling: IEEE_UNDERFLOW_FLAG IEEE_DENORMAL
Note: The following floating-point exceptions are signalling: IEEE_UNDERFLOW_FLAG IEEE_DENORMAL
Note: The following floating-point exceptions are signalling: IEEE_UNDERFLOW_FLAG IEEE_DENORMAL
Note: The following floating-point exceptions are signalling: IEEE_UNDERFLOW_FLAG IEEE_DENORMAL
Note: The following floating-point exceptions are signalling: IEEE_UNDERFLOW_FLAG IEEE_DENORMAL
Note: The following floating-point exceptions are signalling: IEEE_UNDERFLOW_FLAG IEEE_DENORMAL
Note: The following floating-point exceptions are signalling: IEEE_UNDERFLOW_FLAG IEEE_DENORMAL
Note: The following floating-point exceptions are signalling: IEEE_UNDERFLOW_FLAG IEEE_DENORMAL
Note: The following floating-point exceptions are signalling: IEEE_UNDERFLOW_FLAG IEEE_DENORMAL
Note: The following floating-point exceptions are signalling: IEEE_UNDERFLOW_FLAG IEEE_DENORMAL
Note: The following floating-point exceptions are signalling: IEEE_UNDERFLOW_FLAG IEEE_DENORMAL
Note: The following floating-point exceptions are signalling: IEEE_UNDERFLOW_FLAG IEEE_DENORMAL
Note: The following floating-point exceptions are signalling: IEEE_UNDERFLOW_FLAG IEEE_DENORMAL
Note: The following floating-point exceptions are signalling: IEEE_UNDERFLOW_FLAG IEEE_DENORMAL
Note: The following floating-point exceptions are signalling: IEEE_UNDERFLOW_FLAG IEEE_DENORMAL
Note: The following floating-point exceptions are signalling: IEEE_UNDERFLOW_FLAG IEEE_DENORMAL
Note: The following floating-point exceptions are signalling: IEEE_UNDERFLOW_FLAG IEEE_DENORMAL
Note: The following floating-point exceptions are signalling: IEEE_UNDERFLOW_FLAG IEEE_DENORMAL
Note: The following floating-point exceptions are signalling: IEEE_UNDERFLOW_FLAG IEEE_DENORMAL
Note: The following floating-point exceptions are signalling: IEEE_UNDERFLOW_FLAG IEEE_DENORMAL
Note: The following floating-point exceptions are signalling: IEEE_UNDERFLOW_FLAG IEEE_DENORMAL
Note: The following floating-point exceptions are signalling: IEEE_UNDERFLOW_FLAG IEEE_DENORMAL
Note: The following floating-point exceptions are signalling: IEEE_UNDERFLOW_FLAG IEEE_DENORMAL
Note: The following floating-point exceptions are signalling: IEEE_UNDERFLOW_FLAG IEEE_DENORMAL
Note: The following floating-point exceptions are signalling: IEEE_UNDERFLOW_FLAG IEEE_DENORMAL
Note: The following floating-point exceptions are signalling: IEEE_UNDERFLOW_FLAG IEEE_DENORMAL
Note: The following floating-point exceptions are signalling: IEEE_UNDERFLOW_FLAG IEEE_DENORMAL
Note: The following floating-point exceptions are signalling: IEEE_UNDERFLOW_FLAG IEEE_DENORMAL
Note: The following floating-point exceptions are signalling: IEEE_UNDERFLOW_FLAG IEEE_DENORMAL
Note: The following floating-point exceptions are signalling: IEEE_UNDERFLOW_FLAG IEEE_DENORMAL
Note: The following floating-point exceptions are signalling: IEEE_UNDERFLOW_FLAG IEEE_DENORMAL
Note: The following floating-point exceptions are signalling: IEEE_UNDERFLOW_FLAG IEEE_DENORMAL
Note: The following floating-point exceptions are signalling: IEEE_UNDERFLOW_FLAG IEEE_DENORMAL
Note: The following floating-point exceptions are signalling: IEEE_UNDERFLOW_FLAG IEEE_DENORMAL
Note: The following floating-point exceptions are signalling: IEEE_UNDERFLOW_FLAG IEEE_DENORMAL
Note: The following floating-point exceptions are signalling: IEEE_UNDERFLOW_FLAG IEEE_DENORMAL
Note: The following floating-point exceptions are signalling: IEEE_UNDERFLOW_FLAG IEEE_DENORMAL
Note: The following floating-point exceptions are signalling: IEEE_UNDERFLOW_FLAG IEEE_DENORMAL
Note: The following floating-point exceptions are signalling: IEEE_UNDERFLOW_FLAG IEEE_DENORMAL
Note: The following floating-point exceptions are signalling: IEEE_UNDERFLOW_FLAG IEEE_DENORMAL
Note: The following floating-point exceptions are signalling: IEEE_UNDERFLOW_FLAG IEEE_DENORMAL
Note: The following floating-point exceptions are signalling: IEEE_UNDERFLOW_FLAG IEEE_DENORMAL
Note: The following floating-point exceptions are signalling: IEEE_UNDERFLOW_FLAG IEEE_DENORMAL
Note: The following floating-point exceptions are signalling: IEEE_UNDERFLOW_FLAG IEEE_DENORMAL
Note: The following floating-point exceptions are signalling: IEEE_UNDERFLOW_FLAG IEEE_DENORMAL
Note: The following floating-point exceptions are signalling: IEEE_UNDERFLOW_FLAG IEEE_DENORMAL
Note: The following floating-point exceptions are signalling: IEEE_UNDERFLOW_FLAG IEEE_DENORMAL
Note: The following floating-point exceptions are signalling: IEEE_UNDERFLOW_FLAG IEEE_DENORMAL
Note: The following floating-point exceptions are signalling: IEEE_UNDERFLOW_FLAG IEEE_DENORMAL
Note: The following floating-point exceptions are signalling: IEEE_UNDERFLOW_FLAG IEEE_DENORMAL
Note: The following floating-point exceptions are signalling: IEEE_UNDERFLOW_FLAG IEEE_DENORMAL
Note: The following floating-point exceptions are signalling: IEEE_UNDERFLOW_FLAG IEEE_DENORMAL
Note: The following floating-point exceptions are signalling: IEEE_UNDERFLOW_FLAG IEEE_DENORMAL
Note: The following floating-point exceptions are signalling: IEEE_UNDERFLOW_FLAG IEEE_DENORMAL
Note: The following floating-point exceptions are signalling: IEEE_UNDERFLOW_FLAG IEEE_DENORMAL
Note: The following floating-point exceptions are signalling: IEEE_UNDERFLOW_FLAG IEEE_DENORMAL
Note: The following floating-point exceptions are signalling: IEEE_UNDERFLOW_FLAG IEEE_DENORMAL
Note: The following floating-point exceptions are signalling: IEEE_UNDERFLOW_FLAG IEEE_DENORMAL
Note: The following floating-point exceptions are signalling: IEEE_UNDERFLOW_FLAG IEEE_DENORMAL
Note: The following floating-point exceptions are signalling: IEEE_UNDERFLOW_FLAG IEEE_DENORMAL
Note: The following floating-point exceptions are signalling: IEEE_UNDERFLOW_FLAG IEEE_DENORMAL
Note: The following floating-point exceptions are signalling: IEEE_UNDERFLOW_FLAG IEEE_DENORMAL
Note: The following floating-point exceptions are signalling: IEEE_UNDERFLOW_FLAG IEEE_DENORMAL
Note: The following floating-point exceptions are signalling: IEEE_UNDERFLOW_FLAG IEEE_DENORMAL
Note: The following floating-point exceptions are signalling: IEEE_UNDERFLOW_FLAG IEEE_DENORMAL
Note: The following floating-point exceptions are signalling: IEEE_UNDERFLOW_FLAG IEEE_DENORMAL
Note: The following floating-point exceptions are signalling: IEEE_UNDERFLOW_FLAG IEEE_DENORMAL
Note: The following floating-point exceptions are signalling: IEEE_UNDERFLOW_FLAG IEEE_DENORMAL
Note: The following floating-point exceptions are signalling: IEEE_UNDERFLOW_FLAG IEEE_DENORMAL
Note: The following floating-point exceptions are signalling: IEEE_UNDERFLOW_FLAG IEEE_DENORMAL
Note: The following floating-point exceptions are signalling: IEEE_UNDERFLOW_FLAG IEEE_DENORMAL
Note: The following floating-point exceptions are signalling: IEEE_UNDERFLOW_FLAG IEEE_DENORMAL
Note: The following floating-point exceptions are signalling: IEEE_UNDERFLOW_FLAG IEEE_DENORMAL
Note: The following floating-point exceptions are signalling: IEEE_UNDERFLOW_FLAG IEEE_DENORMAL
Note: The following floating-point exceptions are signalling: IEEE_UNDERFLOW_FLAG IEEE_DENORMAL
Note: The following floating-point exceptions are signalling: IEEE_UNDERFLOW_FLAG IEEE_DENORMAL
Note: The following floating-point exceptions are signalling: IEEE_UNDERFLOW_FLAG IEEE_DENORMAL
Note: The following floating-point exceptions are signalling: IEEE_UNDERFLOW_FLAG IEEE_DENORMAL
Note: The following floating-point exceptions are signalling: IEEE_UNDERFLOW_FLAG IEEE_DENORMAL
Note: The following floating-point exceptions are signalling: IEEE_UNDERFLOW_FLAG IEEE_DENORMAL
Note: The following floating-point exceptions are signalling: IEEE_UNDERFLOW_FLAG IEEE_DENORMAL
Note: The following floating-point exceptions are signalling: IEEE_UNDERFLOW_FLAG IEEE_DENORMAL
Note: The following floating-point exceptions are signalling: IEEE_UNDERFLOW_FLAG IEEE_DENORMAL
Note: The following floating-point exceptions are signalling: IEEE_UNDERFLOW_FLAG IEEE_DENORMAL
Note: The following floating-point exceptions are signalling: IEEE_UNDERFLOW_FLAG IEEE_DENORMAL
Note: The following floating-point exceptions are signalling: IEEE_UNDERFLOW_FLAG IEEE_DENORMAL
Note: The following floating-point exceptions are signalling: IEEE_UNDERFLOW_FLAG IEEE_DENORMAL
Note: The following floating-point exceptions are signalling: IEEE_UNDERFLOW_FLAG IEEE_DENORMAL
Note: The following floating-point exceptions are signalling: IEEE_UNDERFLOW_FLAG IEEE_DENORMAL
Note: The following floating-point exceptions are signalling: IEEE_UNDERFLOW_FLAG IEEE_DENORMAL
Note: The following floating-point exceptions are signalling: IEEE_UNDERFLOW_FLAG IEEE_DENORMAL
Note: The following floating-point exceptions are signalling: IEEE_UNDERFLOW_FLAG IEEE_DENORMAL
Note: The following floating-point exceptions are signalling: IEEE_UNDERFLOW_FLAG IEEE_DENORMAL
Note: The following floating-point exceptions are signalling: IEEE_UNDERFLOW_FLAG IEEE_DENORMAL
Note: The following floating-point exceptions are signalling: IEEE_UNDERFLOW_FLAG IEEE_DENORMAL
Note: The following floating-point exceptions are signalling: IEEE_UNDERFLOW_FLAG IEEE_DENORMAL
Note: The following floating-point exceptions are signalling: IEEE_UNDERFLOW_FLAG IEEE_DENORMAL
Note: The following floating-point exceptions are signalling: IEEE_UNDERFLOW_FLAG IEEE_DENORMAL
Note: The following floating-point exceptions are signalling: IEEE_UNDERFLOW_FLAG IEEE_DENORMAL
Note: The following floating-point exceptions are signalling: IEEE_UNDERFLOW_FLAG IEEE_DENORMAL
Note: The following floating-point exceptions are signalling: IEEE_UNDERFLOW_FLAG IEEE_DENORMAL
Note: The following floating-point exceptions are signalling: IEEE_UNDERFLOW_FLAG IEEE_DENORMAL
Note: The following floating-point exceptions are signalling: IEEE_UNDERFLOW_FLAG IEEE_DENORMAL
Note: The following floating-point exceptions are signalling: IEEE_UNDERFLOW_FLAG IEEE_DENORMAL
Note: The following floating-point exceptions are signalling: IEEE_UNDERFLOW_FLAG IEEE_DENORMAL
Note: The following floating-point exceptions are signalling: IEEE_UNDERFLOW_FLAG IEEE_DENORMAL
Note: The following floating-point exceptions are signalling: IEEE_UNDERFLOW_FLAG IEEE_DENORMAL
Note: The following floating-point exceptions are signalling: IEEE_UNDERFLOW_FLAG IEEE_DENORMAL
Note: The following floating-point exceptions are signalling: IEEE_UNDERFLOW_FLAG IEEE_DENORMAL
Note: The following floating-point exceptions are signalling: IEEE_UNDERFLOW_FLAG IEEE_DENORMAL
Note: The following floating-point exceptions are signalling: IEEE_UNDERFLOW_FLAG IEEE_DENORMAL
Note: The following floating-point exceptions are signalling: IEEE_UNDERFLOW_FLAG IEEE_DENORMAL
Note: The following floating-point exceptions are signalling: IEEE_UNDERFLOW_FLAG IEEE_DENORMAL
Note: The following floating-point exceptions are signalling: IEEE_UNDERFLOW_FLAG IEEE_DENORMAL
Note: The following floating-point exceptions are signalling: IEEE_UNDERFLOW_FLAG IEEE_DENORMAL
Note: The following floating-point exceptions are signalling: IEEE_UNDERFLOW_FLAG IEEE_DENORMAL
Note: The following floating-point exceptions are signalling: IEEE_UNDERFLOW_FLAG IEEE_DENORMAL
Note: The following floating-point exceptions are signalling: IEEE_UNDERFLOW_FLAG IEEE_DENORMAL
Note: The following floating-point exceptions are signalling: IEEE_UNDERFLOW_FLAG IEEE_DENORMAL
Note: The following floating-point exceptions are signalling: IEEE_UNDERFLOW_FLAG IEEE_DENORMAL
end_date Mon Oct 31 20:07:53 GMT 2022
 
TEMPORARY          SAVED (in /mnt/lustre/a2fs-work2/work/e05/e05/bcamino/quantum_computing/test_model/optgeom)
fort.34            graphene_3v_D.gui 1492     Oct 31 20:07
fort.33            graphene_3v_D.xyz 27157    Oct 31 20:07
fort.9             graphene_3v_D.f9  1544240  Oct 31 20:07
fort.98            graphene_3v_D.f98 4018913  Oct 31 20:07
SCFOUT.LOG         graphene_3v_D.SCFLOG479174   Oct 31 20:07
OPTINFO.DAT        graphene_3v_D.OPTINFO11906031 Oct 31 20:07
HESSOPT.DAT        graphene_3v_D.HESSOPT37485    Oct 31 20:07
opta001            opta002            
Disk usage:<du -m>
506	/mnt/lustre/a2fs-work2/work/e05/e05/bcamino/quantum_computing/test_model/optgeom/tmp_graphene_3v_D_
</du -m>
Filesystem                                          1K-blocks          Used     Available Use% Mounted on
10.253.102.2@o2ib1:10.253.102.3@o2ib1:/cls01097 3582178503216 1813549107772 1732426369036  52% /mnt/lustre/a2fs-work2
10.253.102.2@o2ib1:10.253.102.3@o2ib1:/cls01097 3582178503216 1813549107772 1732426369036  52% /mnt/lustre/a2fs-work2
