date:                Tue Nov  1 00:25:12 GMT 2022
hostname:            nid005741
system:              Linux nid005741 4.12.14-197.78_9.1.64-cray_shasta_c #1 SMP Wed Aug 25 14:56:40 UTC 2021 (4e2a900) x86_64 x86_64 x86_64 GNU/Linux
user:                bcamino
input:               /mnt/lustre/a2fs-work2/work/e05/e05/bcamino/quantum_computing/test_model/optgeom/graphene_3v_N.d12
output:              /mnt/lustre/a2fs-work2/work/e05/e05/bcamino/quantum_computing/test_model/optgeom/graphene_3v_N.out
executable script:   /work/e05/e05/bcamino/runCRYSTAL/Pcry_slurm
executable:          Pcrystal
Command:             srun --hint=nomultithread --distribution=block:block Pcrystal
Slurm JobID:         
temporary directory: /mnt/lustre/a2fs-work2/work/e05/e05/bcamino/quantum_computing/test_model/optgeom/tmp_graphene_3v_N_      
input data /mnt/lustre/a2fs-work2/work/e05/e05/bcamino/quantum_computing/test_model/optgeom/graphene_3v_N.d12
Final
EXTERNAL
SYMMREMO
OPTGEOM
ATOMONLY
END
END
6 8
0 0 6 2.0 1.0
  13575.349682      0.00022245814352
  2035.2333680      0.00172327382520
  463.22562359      0.00892557153140
  131.20019598      0.03572798450200
  42.853015891      0.11076259931000
  15.584185766      0.24295627626000
0 0 2 2.0 1.0
  6.2067138508      0.41440263448000
  2.5764896527      0.23744968655000
0 0 1 0.0 1.0
  0.4941102000      1.00000000000000
0 0 1 0.0 1.0
  0.1644071000      1.00000000000000
0 2 4 2.0 1.0
  34.697232244      0.00533336578050
  7.9582622826      0.03586410909200
  2.3780826883      0.14215873329000
  0.8143320818      0.34270471845000
0 2 1 0.0 1.0
  0.5662417100      1.00000000000000
0 2 1 0.0 1.0
  0.1973545000      1.00000000000000
0 3 1 0.0 1.0
  0.5791584200      1.00000000000000
99 0
ENDBS
DFT
PBE  
ENDDFT
TOLINTEG
8 8 8 8 16
SCFDIR
SHRINK
8 16  
MAXCYCLE
200
TOLDEE
9 
ENDSCF
input data /mnt/lustre/a2fs-work2/work/e05/e05/bcamino/quantum_computing/test_model/optgeom/graphene_3v_N.gui
         128 PROCESSORS WORKING

         
 *******************************************************************************
 *                                                                             *
 *                               CRYSTAL17                                     *
 *                      public : 1.0.2 - March 1st, 2018 STFC/Archer2 build    *
 *                       HTTP://WWW.CRYSTAL.UNITO.IT                           *
 *                                                                             *
 *                              MAIN AUTHORS                                   *
 *                                                                             *
 *  R. DOVESI(1,11), V.R. SAUNDERS(2), C. ROETTI(1,11), R. ORLANDO(1,11),      *
 *  C.M. ZICOVICH-WILSON(1,3), F. PASCALE(4), B. CIVALLERI(1,11),              *
 *  K. DOLL(5), N.M. HARRISON(2,6), I.J. BUSH(7), Ph. D'ARCO(8),               *
 *  M. LLUNELL(9), M. CAUSA'(10), Y. NOEL(8), L. MASCHIO(1,11), A. ERBA(1,11)  *
 *  M. RE'RAT(14), S. CASASSA(1,11)                                            *
 *                                                                             *
 *        CONTRIBUTIONS TO THE CODE HAVE ALSO BEEN GIVEN BY                    *
 *                                                                             *
 *  M. FERRABONE(1,11), M. DE LA PIERRE(1,11), M. FERRERO(1,11),               *
 *  J. BAIMA(1,11), E. ALBANESE(1,11), M.F. PEINTINGER(12), R. BAST(13),       *
 *  B. KIRTMAN(15), V. LACIVITA(1,11), R. DEMICHELIS(1,16)                     *
 *  G. BRANDEBURG(17), S. SALUSTRO(1,11), G. SANSONE(1,11)                     *
 *  M.T. RUGGIERO(18)                                                          *
 *                                                                             *
 * (1) THEORETICAL CHEMISTRY GROUP - UNIVERSITA' DI TORINO - TORINO (ITALY)    *
 * (2) COMPUTATIONAL SCIENCE & ENGINEERING DEPARTMENT - STFC DARESBURY (UK)    *
 * (3) UNIVERSIDAD AUTONOMA DEL ESTADO DE MORELOS - CUERNAVACA (MEXICO)        *
 * (4) UNIVERSITE' DE LORRAINE - NANCY (FRANCE)                                *
 * (5) UNIVERSITAET STUTTGART- STUTTGART (GERMANY)                             *
 * (6) IMPERIAL COLLEGE - LONDON (UK)                                          *
 * (7) OXFORD E-RESEARCH CENTRE - OXFORD (UK)                                  *
 * (8) UPMC - SORBONNE UNIVERSITES - PARIS (FRANCE)                            *
 * (9) UNIVERSIDAD DE BARCELONA - BARCELONA (SPAIN)                            *
 *(10) UNIVERSITA' DI NAPOLI "FEDERICO II" - NAPOLI (ITALY)                    *
 *(11) NIS - NANOSTRUCTURED INTERFACES AND SURFACES - TORINO (ITALY)           *
 *(12) MPI FUER CHEMISCHE ENERGIEKONVERSION - MUELHEIM AN DER RUHR (GERMANY)   *
 *(13) UNIVERSITY OF TROMSO - TROMSO (NORWAY)                                  *
 *(14) UNIVERSITE' DE PAU ET DES PAYS DE L'ADOUR - PAU (FRANCE)                *
 *(15) UNIVERSITY OF CALIFORNIA SANTA BARBARA - SANTA BARBARA (USA)            *
 *(16) CURTIN UNIVERSITY - PERTH (AUSTRALIA)                                   *
 *(17) UNIVERSITY COLLEGE LONDON - LONDON (UK)                                 *
 *(18) CAMBRIDGE UNIVERSITY - CAMBRIDGE (UK)                                   *
 *                                                                             *
 *******************************************************************************
 EEEEEEEEEE STARTING  DATE 01 11 2022 TIME 00:25:14.7
 Final                                                                           

 GEOMETRY INPUT FROM EXTERNAL FILE (FORTRAN UNIT 34)
 3D - CRYSTAL 

 *******************************************************************************
 LATTICE PARAMETERS  (ANGSTROMS AND DEGREES) - PRIMITIVE CELL
       A          B          C        ALPHA      BETA     GAMMA        VOLUME
    7.40317    7.40317    8.68504    90.00000  90.00000 120.00000    412.228566
 INFORMATION **** CHKGRP **** SPGR WITH NO INVERSION

 NUMBER OF IRREDUCIBLE ATOMS IN THE CELL:   15

 CARTESIAN COORDINATES (ANGSTROM) - IRREDUCIBLE ATOMS AND SYMMETRY RELATED

 AT.IRR.  AT  AT.N.          X                   Y                   Z
     1     1     6    1.233862070683E+00  7.123705986520E-01  2.605511400000E+00
     2     2     6    2.467724141366E+00 -1.424741197304E+00  2.605511400000E+00
     3     3     6    3.701586212049E+00  7.123705986520E-01  2.605511400000E+00
     4     4     6    4.935448282733E+00  2.849482394607E+00  2.605511400000E+00
     5     5     6    3.701586212049E+00 -3.561852993259E+00  2.605511400000E+00
     6     6     6    4.935448282733E+00 -1.424741197304E+00  2.605511400000E+00
     7     7     6    6.169310353416E+00  7.123705986520E-01  2.605511400000E+00
     8     8     6    1.233862070683E+00 -7.123705986520E-01  2.605511400000E+00
     9     9     6    2.467724141366E+00  1.424741197304E+00  2.605511400000E+00
    10    10     6    3.701586212049E+00  3.561852993259E+00  2.605511400000E+00
    11    11     6    2.467724141366E+00 -2.849482394607E+00  2.605511400000E+00
    12    12     6    3.701586212049E+00 -7.123705986520E-01  2.605511400000E+00
    13    13     6    4.935448282733E+00  1.424741197304E+00  2.605511400000E+00
    14    14     6    4.935448282733E+00 -2.849482394607E+00  2.605511400000E+00
    15    15     6    6.169310353416E+00 -7.123705986520E-01  2.605511400000E+00

 SPACE  GROUP  N.                     :    1
 NUMBER OF SYMMETRY OPERATORS         :    1
 *******************************************************************************
 LATTICE PARAMETERS (ANGSTROMS AND DEGREES) - BOHR = 0.5291772083 ANGSTROM
 PRIMITIVE CELL - CENTRING CODE 1/0 VOLUME=   412.228566 - DENSITY  0.725 g/cm^3
         A              B              C           ALPHA      BETA       GAMMA 
     7.40317242     7.40317242     8.68503800    90.000000  90.000000 120.000000
 *******************************************************************************
 ATOMS IN THE ASYMMETRIC UNIT   15 - ATOMS IN THE UNIT CELL:   15
     ATOM                 X/A                 Y/B                 Z/C    
 *******************************************************************************
      1 T   6 C     1.111111111111E-01  2.222222222222E-01  3.000000000000E-01
      2 T   6 C     4.444444444445E-01  2.222222222222E-01  3.000000000000E-01
      3 T   6 C     4.444444444444E-01 -4.444444444444E-01  3.000000000000E-01
      4 T   6 C     4.444444444446E-01 -1.111111111110E-01  3.000000000000E-01
      5 T   6 C    -2.222222222222E-01  2.222222222222E-01  3.000000000000E-01
      6 T   6 C    -2.222222222221E-01 -4.444444444443E-01  3.000000000000E-01
      7 T   6 C    -2.222222222221E-01 -1.111111111110E-01  3.000000000000E-01
      8 T   6 C     2.222222222222E-01  1.111111111111E-01  3.000000000000E-01
      9 T   6 C     2.222222222222E-01  4.444444444445E-01  3.000000000000E-01
     10 T   6 C     2.222222222222E-01 -2.222222222222E-01  3.000000000000E-01
     11 T   6 C    -4.444444444445E-01  1.111111111111E-01  3.000000000000E-01
     12 T   6 C    -4.444444444444E-01  4.444444444444E-01  3.000000000000E-01
     13 T   6 C    -4.444444444443E-01 -2.222222222221E-01  3.000000000000E-01
     14 T   6 C    -1.111111111110E-01  4.444444444446E-01  3.000000000000E-01
     15 T   6 C    -1.111111111110E-01 -2.222222222221E-01  3.000000000000E-01

 T = ATOM BELONGING TO THE ASYMMETRIC UNIT
 *******************************************************************************
 * GEOMETRY EDITING - INPUT COORDINATES ARE GIVEN IN ANGSTROM         
 *******************************************************************************

 USE OF SYMMETRY WILL BE SUBSEQUENTLY SUSPENDED
 INFORMATION **** NEW DEFAULT **** FINALRUN 4 FOR GEOMETRY OPTIMIZATIONS
 INFORMATION **** NEW DEFAULT **** OPTGEOM OPTIMIZES BOTH ATOMIC COORDINATES AND CELL PARAMETERS
 INFORMATION **** NEW DEFAULT **** TOL. ON ATOMIC DISP TO REDEFINE REF. GEOMETRY: 0.8 Angs
 INFORMATION **** NEW DEFAULT **** N POINTS TO REDEFINE REF. GEOMETRY: N OF OPT DEGS OF FREEDOM
 INFORMATION **** NEW DEFAULT **** TOL. ON ENERGY TO REDEFINE REF. GEOMETRY: 10**-3*(5*N. ATOMS)
 INFORMATION **** ATOMONLY **** ONLY ATOMIC COORDINATES ARE OPTIMIZED

 IMPORTANT INFORMATION:
 THE COORDINATE SYSTEM ADOPTED IN THE OPTIMIZATION IS NOT IN
 GENERAL HOMOGENEOUS UNITS. FOR THIS REASON THE GRADIENT AND 
 HESSIAN MATRIX IN TERMS OF THIS SYSTEM ARE GIVEN WITHOUT
 UNITS. FOR MORE DETAILS SEE THE MANUAL.

 *******************************************************************************
 ATOMIC POSITIONS OPTIMIZATION CONTROL

 INITIAL TRUST RADIUS         0.50000 MAXIMUM TRUST RADIUS               4.00000
 MAXIMUM GRADIENT COMPONENT   0.00045 MAXIMUM DISPLACEMENT COMPONENT     0.00180
 R.M.S. OF GRADIENT COMPONENT 0.00030 R.M.S. OF DISPLACEMENT COMPONENTS  0.00120
 THRESHOLD ON ENERGY CHANGE 0.100E-06 EXTRAPOLATING POLYNOMIAL ORDER           2
 MAXIMUM ALLOWED NUMBER OF STEPS   -1 SORTING OF ENERGY POINTS:               NO
 ANALYTICAL  GRADIENT                 HESSIAN UPDATING                      BFGS
 STEP SIZE NUMERICAL GRADIENT 0.00100
 INITIAL HESSIAN MATRIX: SCHLEGEL MODEL 2
 *******************************************************************************


 GCALCO - MAX INDICES DIRECT LATTICE VECTOR    16    16    12
 NO.OF VECTORS CREATED 6999 STARS  379 RMAX   166.99060 BOHR

 GEOMETRY FOR WAVE FUNCTION - DIMENSIONALITY OF THE SYSTEM    3
 (NON PERIODIC DIRECTION: LATTICE PARAMETER FORMALLY SET TO 500)
 *******************************************************************************
 LATTICE PARAMETERS (ANGSTROMS AND DEGREES) - BOHR = 0.5291772083 ANGSTROM
 PRIMITIVE CELL - CENTRING CODE 1/0 VOLUME=   412.228566 - DENSITY  0.725 g/cm^3
         A              B              C           ALPHA      BETA       GAMMA 
     7.40317242     7.40317242     8.68503800    90.000000  90.000000 120.000000
 *******************************************************************************
 ATOMS IN THE ASYMMETRIC UNIT   15 - ATOMS IN THE UNIT CELL:   15
     ATOM                 X/A                 Y/B                 Z/C    
 *******************************************************************************
      1 T   6 C     1.111111111111E-01  2.222222222222E-01  3.000000000000E-01
      2 T   6 C     4.444444444445E-01  2.222222222222E-01  3.000000000000E-01
      3 T   6 C     4.444444444444E-01 -4.444444444444E-01  3.000000000000E-01
      4 T   6 C     4.444444444446E-01 -1.111111111110E-01  3.000000000000E-01
      5 T   6 C    -2.222222222222E-01  2.222222222222E-01  3.000000000000E-01
      6 T   6 C    -2.222222222221E-01 -4.444444444443E-01  3.000000000000E-01
      7 T   6 C    -2.222222222221E-01 -1.111111111110E-01  3.000000000000E-01
      8 T   6 C     2.222222222222E-01  1.111111111111E-01  3.000000000000E-01
      9 T   6 C     2.222222222222E-01  4.444444444445E-01  3.000000000000E-01
     10 T   6 C     2.222222222222E-01 -2.222222222222E-01  3.000000000000E-01
     11 T   6 C    -4.444444444445E-01  1.111111111111E-01  3.000000000000E-01
     12 T   6 C    -4.444444444444E-01  4.444444444444E-01  3.000000000000E-01
     13 T   6 C    -4.444444444443E-01 -2.222222222221E-01  3.000000000000E-01
     14 T   6 C    -1.111111111110E-01  4.444444444446E-01  3.000000000000E-01
     15 T   6 C    -1.111111111110E-01 -2.222222222221E-01  3.000000000000E-01

 T = ATOM BELONGING TO THE ASYMMETRIC UNIT

 ****    1 SYMMOPS - TRANSLATORS IN FRACTIONAL UNITS
 **** MATRICES AND TRANSLATORS IN THE CRYSTALLOGRAPHIC REFERENCE FRAME
   V INV                    ROTATION MATRICES                   TRANSLATORS
   1   1  1.00  0.00  0.00  0.00  1.00  0.00  0.00  0.00  1.00  0.00  0.00  0.00

 DIRECT LATTICE VECTORS CARTESIAN COMPONENTS (ANGSTROM)
          X                    Y                    Z
   0.370158621205E+01  -0.641133538787E+01   0.000000000000E+00
   0.370158621205E+01   0.641133538787E+01   0.000000000000E+00
   0.000000000000E+00   0.000000000000E+00   0.868503800000E+01


 CARTESIAN COORDINATES - PRIMITIVE CELL
 *******************************************************************************
 *      ATOM          X(ANGSTROM)         Y(ANGSTROM)         Z(ANGSTROM)
 *******************************************************************************
    1     6 C     1.233862070683E+00  7.123705986520E-01  2.605511400000E+00
    2     6 C     2.467724141366E+00 -1.424741197304E+00  2.605511400000E+00
    3     6 C     3.701586212049E+00  7.123705986520E-01  2.605511400000E+00
    4     6 C     4.935448282733E+00  2.849482394607E+00  2.605511400000E+00
    5     6 C     3.701586212049E+00 -3.561852993259E+00  2.605511400000E+00
    6     6 C     4.935448282733E+00 -1.424741197304E+00  2.605511400000E+00
    7     6 C     6.169310353416E+00  7.123705986520E-01  2.605511400000E+00
    8     6 C     1.233862070683E+00 -7.123705986520E-01  2.605511400000E+00
    9     6 C     2.467724141366E+00  1.424741197304E+00  2.605511400000E+00
   10     6 C     3.701586212049E+00  3.561852993259E+00  2.605511400000E+00
   11     6 C     2.467724141366E+00 -2.849482394607E+00  2.605511400000E+00
   12     6 C     3.701586212049E+00 -7.123705986520E-01  2.605511400000E+00
   13     6 C     4.935448282733E+00  1.424741197304E+00  2.605511400000E+00
   14     6 C     4.935448282733E+00 -2.849482394607E+00  2.605511400000E+00
   15     6 C     6.169310353416E+00 -7.123705986520E-01  2.605511400000E+00

 *******************************************************************************
 LOCAL ATOMIC FUNCTIONS BASIS SET
 *******************************************************************************
   ATOM   X(AU)   Y(AU)   Z(AU)  N. TYPE  EXPONENT  S COEF   P COEF   D/F/G COEF
 *******************************************************************************
   1 C    2.332   1.346   4.924
                                  1 S  
                                         1.358E+04 2.225E-04 0.000E+00 0.000E+00
                                         2.035E+03 1.723E-03 0.000E+00 0.000E+00
                                         4.632E+02 8.926E-03 0.000E+00 0.000E+00
                                         1.312E+02 3.573E-02 0.000E+00 0.000E+00
                                         4.285E+01 1.108E-01 0.000E+00 0.000E+00
                                         1.558E+01 2.430E-01 0.000E+00 0.000E+00
                                  2 S  
                                         6.207E+00 4.144E-01 0.000E+00 0.000E+00
                                         2.576E+00 2.374E-01 0.000E+00 0.000E+00
                                  3 S  
                                         4.941E-01 1.000E+00 0.000E+00 0.000E+00
                                  4 S  
                                         1.644E-01 1.000E+00 0.000E+00 0.000E+00
                           5-     7 P  
                                         3.470E+01 0.000E+00 5.333E-03 0.000E+00
                                         7.958E+00 0.000E+00 3.586E-02 0.000E+00
                                         2.378E+00 0.000E+00 1.422E-01 0.000E+00
                                         8.143E-01 0.000E+00 3.427E-01 0.000E+00
                           8-    10 P  
                                         5.662E-01 0.000E+00 1.000E+00 0.000E+00
                          11-    13 P  
                                         1.974E-01 0.000E+00 1.000E+00 0.000E+00
                          14-    18 D  
                                         5.792E-01 0.000E+00 0.000E+00 1.000E+00
   2 C    4.663  -2.692   4.924
   3 C    6.995   1.346   4.924
   4 C    9.327   5.385   4.924
   5 C    6.995  -6.731   4.924
   6 C    9.327  -2.692   4.924
   7 C   11.658   1.346   4.924
   8 C    2.332  -1.346   4.924
   9 C    4.663   2.692   4.924
  10 C    6.995   6.731   4.924
  11 C    4.663  -5.385   4.924
  12 C    6.995  -1.346   4.924
  13 C    9.327   2.692   4.924
  14 C    9.327  -5.385   4.924
  15 C   11.658  -1.346   4.924
 INFORMATION **** SET_MPP **** PCRYSTAL CALCULATION
 INFORMATION **** READM2 **** NEW DEFAULT: FOCK/KS MATRIX MIXING SET TO 30 %
 INFORMATION **** READM2 **** NEW DEFAULT: FULL DIRECT SCF MODE
 INFORMATION **** READM2 **** NEW DEFAULT: COULOMB BIPOLAR BUFFER SET TO 32 Mb
 INFORMATION **** READM2 **** NEW DEFAULT: EXCHANGE BIPOLAR BUFFER SET TO 32 Mb

 *******************************************************************************
 NEW DEFAULT: DFT INTEGRATION GRID INCREASED TO XLGRID
 NEW DEFAULT: DIIS ACCELERATOR ACTIVE
 USE KEYWORD NODIIS TO TURN IT OFF
 *******************************************************************************

 INFORMATION **** TOLINTEG **** COULOMB AND EXCHANGE SERIES TOLERANCES MODIFIED
 INFORMATION **** READM2 **** FULL DIRECT SCF (MONO AND BIEL INT) SELECTED
 INFORMATION **** MAXCYCLE **** MAX NUMBER OF SCF CYCLES SET TO         200
 INFORMATION **** TOLDEE **** SCF TOL ON TOTAL ENERGY SET TO           9
 *******************************************************************************
 N. OF ATOMS PER CELL        15  COULOMB OVERLAP TOL         (T1) 10**   -8
 NUMBER OF SHELLS           120  COULOMB PENETRATION TOL     (T2) 10**   -8
 NUMBER OF AO               270  EXCHANGE OVERLAP TOL        (T3) 10**   20
 N. OF ELECTRONS PER CELL    90  EXCHANGE PSEUDO OVP (F(G))  (T4) 10**   20
 CORE ELECTRONS PER CELL     30  EXCHANGE PSEUDO OVP (P(G))  (T5) 10**   20
 N. OF SYMMETRY OPERATORS     1  POLE ORDER IN MONO ZONE                  4
 *******************************************************************************
 TYPE OF CALCULATION :  RESTRICTED CLOSED SHELL
 KOHN-SHAM HAMILTONIAN

 (EXCHANGE)[CORRELATION] FUNCTIONAL:(PERDEW-BURKE-ERNZERHOF)[PERDEW-BURKE-ERNZERHOF]


 CAPPA:IS1  8;IS2  8;IS3  8; K PTS MONK NET 260; SYMMOPS:K SPACE   2;G SPACE   1

 *******************************************************************************
 MAX NUMBER OF SCF CYCLES     200  CONVERGENCE ON DELTAP        10**-19
 WEIGHT OF F(I) IN F(I+1)      30% CONVERGENCE ON ENERGY        10**- 9
 SHRINK. FACT.(MONKH.)    8  8  8  NUMBER OF K POINTS IN THE IBZ    260
 SHRINKING FACTOR(GILAT NET)   16  NUMBER OF K POINTS(GILAT NET)   2052
 *******************************************************************************
 *** K POINTS COORDINATES (OBLIQUE COORDINATES IN UNITS OF IS =  8)
   1-R(  0  0  0)   2-C(  1  0  0)   3-C(  2  0  0)   4-C(  3  0  0)
   5-R(  4  0  0)   6-C(  0  1  0)   7-C(  1  1  0)   8-C(  2  1  0)
   9-C(  3  1  0)  10-C(  4  1  0)  11-C(  5  1  0)  12-C(  6  1  0)
  13-C(  7  1  0)  14-C(  0  2  0)  15-C(  1  2  0)  16-C(  2  2  0)
  17-C(  3  2  0)  18-C(  4  2  0)  19-C(  5  2  0)  20-C(  6  2  0)
  21-C(  7  2  0)  22-C(  0  3  0)  23-C(  1  3  0)  24-C(  2  3  0)
  25-C(  3  3  0)  26-C(  4  3  0)  27-C(  5  3  0)  28-C(  6  3  0)
  29-C(  7  3  0)  30-R(  0  4  0)  31-C(  1  4  0)  32-C(  2  4  0)
  33-C(  3  4  0)  34-R(  4  4  0)  35-C(  0  0  1)  36-C(  1  0  1)
  37-C(  2  0  1)  38-C(  3  0  1)  39-C(  4  0  1)  40-C(  5  0  1)
  41-C(  6  0  1)  42-C(  7  0  1)  43-C(  0  1  1)  44-C(  1  1  1)
  45-C(  2  1  1)  46-C(  3  1  1)  47-C(  4  1  1)  48-C(  5  1  1)
  49-C(  6  1  1)  50-C(  7  1  1)  51-C(  0  2  1)  52-C(  1  2  1)
  53-C(  2  2  1)  54-C(  3  2  1)  55-C(  4  2  1)  56-C(  5  2  1)
  57-C(  6  2  1)  58-C(  7  2  1)  59-C(  0  3  1)  60-C(  1  3  1)
  61-C(  2  3  1)  62-C(  3  3  1)  63-C(  4  3  1)  64-C(  5  3  1)
  65-C(  6  3  1)  66-C(  7  3  1)  67-C(  0  4  1)  68-C(  1  4  1)
  69-C(  2  4  1)  70-C(  3  4  1)  71-C(  4  4  1)  72-C(  5  4  1)
  73-C(  6  4  1)  74-C(  7  4  1)  75-C(  0  5  1)  76-C(  1  5  1)
  77-C(  2  5  1)  78-C(  3  5  1)  79-C(  4  5  1)  80-C(  5  5  1)
  81-C(  6  5  1)  82-C(  7  5  1)  83-C(  0  6  1)  84-C(  1  6  1)
  85-C(  2  6  1)  86-C(  3  6  1)  87-C(  4  6  1)  88-C(  5  6  1)
  89-C(  6  6  1)  90-C(  7  6  1)  91-C(  0  7  1)  92-C(  1  7  1)
  93-C(  2  7  1)  94-C(  3  7  1)  95-C(  4  7  1)  96-C(  5  7  1)
  97-C(  6  7  1)  98-C(  7  7  1)  99-C(  0  0  2) 100-C(  1  0  2)
 101-C(  2  0  2) 102-C(  3  0  2) 103-C(  4  0  2) 104-C(  5  0  2)
 105-C(  6  0  2) 106-C(  7  0  2) 107-C(  0  1  2) 108-C(  1  1  2)
 109-C(  2  1  2) 110-C(  3  1  2) 111-C(  4  1  2) 112-C(  5  1  2)
 113-C(  6  1  2) 114-C(  7  1  2) 115-C(  0  2  2) 116-C(  1  2  2)
 117-C(  2  2  2) 118-C(  3  2  2) 119-C(  4  2  2) 120-C(  5  2  2)
 121-C(  6  2  2) 122-C(  7  2  2) 123-C(  0  3  2) 124-C(  1  3  2)
 125-C(  2  3  2) 126-C(  3  3  2) 127-C(  4  3  2) 128-C(  5  3  2)
 129-C(  6  3  2) 130-C(  7  3  2) 131-C(  0  4  2) 132-C(  1  4  2)
 133-C(  2  4  2) 134-C(  3  4  2) 135-C(  4  4  2) 136-C(  5  4  2)
 137-C(  6  4  2) 138-C(  7  4  2) 139-C(  0  5  2) 140-C(  1  5  2)
 141-C(  2  5  2) 142-C(  3  5  2) 143-C(  4  5  2) 144-C(  5  5  2)
 145-C(  6  5  2) 146-C(  7  5  2) 147-C(  0  6  2) 148-C(  1  6  2)
 149-C(  2  6  2) 150-C(  3  6  2) 151-C(  4  6  2) 152-C(  5  6  2)
 153-C(  6  6  2) 154-C(  7  6  2) 155-C(  0  7  2) 156-C(  1  7  2)
 157-C(  2  7  2) 158-C(  3  7  2) 159-C(  4  7  2) 160-C(  5  7  2)
 161-C(  6  7  2) 162-C(  7  7  2) 163-C(  0  0  3) 164-C(  1  0  3)
 165-C(  2  0  3) 166-C(  3  0  3) 167-C(  4  0  3) 168-C(  5  0  3)
 169-C(  6  0  3) 170-C(  7  0  3) 171-C(  0  1  3) 172-C(  1  1  3)
 173-C(  2  1  3) 174-C(  3  1  3) 175-C(  4  1  3) 176-C(  5  1  3)
 177-C(  6  1  3) 178-C(  7  1  3) 179-C(  0  2  3) 180-C(  1  2  3)
 181-C(  2  2  3) 182-C(  3  2  3) 183-C(  4  2  3) 184-C(  5  2  3)
 185-C(  6  2  3) 186-C(  7  2  3) 187-C(  0  3  3) 188-C(  1  3  3)
 189-C(  2  3  3) 190-C(  3  3  3) 191-C(  4  3  3) 192-C(  5  3  3)
 193-C(  6  3  3) 194-C(  7  3  3) 195-C(  0  4  3) 196-C(  1  4  3)
 197-C(  2  4  3) 198-C(  3  4  3) 199-C(  4  4  3) 200-C(  5  4  3)
 201-C(  6  4  3) 202-C(  7  4  3) 203-C(  0  5  3) 204-C(  1  5  3)
 205-C(  2  5  3) 206-C(  3  5  3) 207-C(  4  5  3) 208-C(  5  5  3)
 209-C(  6  5  3) 210-C(  7  5  3) 211-C(  0  6  3) 212-C(  1  6  3)
 213-C(  2  6  3) 214-C(  3  6  3) 215-C(  4  6  3) 216-C(  5  6  3)
 217-C(  6  6  3) 218-C(  7  6  3) 219-C(  0  7  3) 220-C(  1  7  3)
 221-C(  2  7  3) 222-C(  3  7  3) 223-C(  4  7  3) 224-C(  5  7  3)
 225-C(  6  7  3) 226-C(  7  7  3) 227-R(  0  0  4) 228-C(  1  0  4)
 229-C(  2  0  4) 230-C(  3  0  4) 231-R(  4  0  4) 232-C(  0  1  4)
 233-C(  1  1  4) 234-C(  2  1  4) 235-C(  3  1  4) 236-C(  4  1  4)
 237-C(  5  1  4) 238-C(  6  1  4) 239-C(  7  1  4) 240-C(  0  2  4)
 241-C(  1  2  4) 242-C(  2  2  4) 243-C(  3  2  4) 244-C(  4  2  4)
 245-C(  5  2  4) 246-C(  6  2  4) 247-C(  7  2  4) 248-C(  0  3  4)
 249-C(  1  3  4) 250-C(  2  3  4) 251-C(  3  3  4) 252-C(  4  3  4)
 253-C(  5  3  4) 254-C(  6  3  4) 255-C(  7  3  4) 256-R(  0  4  4)
 257-C(  1  4  4) 258-C(  2  4  4) 259-C(  3  4  4) 260-R(  4  4  4)

 DIRECT LATTICE VECTORS COMPON. (A.U.)     RECIP. LATTICE VECTORS COMPON. (A.U.) 
        X            Y            Z              X            Y            Z
    6.9949842  -12.1156680    0.0000000      0.4491208   -0.2593000    0.0000000
    6.9949842   12.1156680    0.0000000      0.4491208    0.2593000   -0.0000000
    0.0000000    0.0000000   16.4123433     -0.0000000    0.0000000    0.3828329

 DISK SPACE FOR EIGENVECTORS (FTN 10)    37324800 REALS

 SYMMETRY ADAPTION OF THE BLOCH FUNCTIONS DISABLED
 TTTTTTTTTTTTTTTTTTTTTTTTTTTTTT gordsh1     TELAPSE        2.54 TCPU        0.98

 MATRIX SIZE: P(G)  110802, F(G)   55581, P(G) IRR   55866, F(G) IRR   55866
 MAX G-VECTOR INDEX FOR 1- AND 2-ELECTRON INTEGRALS  27

 TTTTTTTTTTTTTTTTTTTTTTTTTTTTTT INPUT       TELAPSE        2.54 TCPU        0.98

 NEIGHBORS OF THE NON-EQUIVALENT ATOMS

 N = NUMBER OF NEIGHBORS AT DISTANCE R
    ATOM  N     R/ANG      R/AU   NEIGHBORS (ATOM LABELS AND CELL INDICES)
   1 C    2     1.4247     2.6924    8 C    0 0 0    9 C    0 0 0
   1 C    4     2.4677     4.6633    2 C    0 0 0    3 C    0 0 0    5 C   -1 0 0
                                     7 C   -1-1 0
   1 C    3     2.8495     5.3847   12 C    0 0 0   14 C   -1 0 0   15 C   -1-1 0
   1 C    6     3.7695     7.1233   10 C    0 0 0   10 C    0-1 0   11 C    0 0 0
                                    11 C   -1 0 0   13 C    0 0 0   13 C   -1-1 0
   1 C    6     4.2742     8.0771    4 C    0 0 0    4 C   -1-1 0    4 C    0-1 0
                                     6 C    0 0 0    6 C   -1-1 0    6 C   -1 0 0
   1 C    4     4.9354     9.3266    2 C   -1 0 0    3 C   -1-1 0    5 C    0 0 0
                                     7 C    0 0 0

   2 C    3     1.4247     2.6924    8 C    0 0 0   11 C    0 0 0   12 C    0 0 0
   2 C    5     2.4677     4.6633    1 C    0 0 0    3 C    0 0 0    4 C    0-1 0
                                     5 C    0 0 0    6 C    0 0 0
   2 C    3     2.8495     5.3847    9 C    0 0 0   10 C    0-1 0   14 C    0 0 0
   2 C    4     3.7695     7.1233   13 C    0 0 0   13 C    0-1 0   15 C    0 0 0
                                    15 C   -1-1 0
   2 C    3     4.2742     8.0771    7 C    0 0 0    7 C   -1-1 0    7 C    0-1 0
   2 C    5     4.9354     9.3266    1 C    1 0 0    3 C    0-1 0    4 C    0 0 0
                                     5 C   -1 0 0    6 C   -1-1 0

   3 C    3     1.4247     2.6924    9 C    0 0 0   12 C    0 0 0   13 C    0 0 0
   3 C    5     2.4677     4.6633    1 C    0 0 0    2 C    0 0 0    4 C    0 0 0
                                     6 C    0 0 0    7 C    0 0 0
   3 C    3     2.8495     5.3847    8 C    0 0 0   10 C    0 0 0   15 C    0 0 0
   3 C    4     3.7695     7.1233   11 C    0 0 0   11 C    0 1 0   14 C    0 0 0
                                    14 C   -1 0 0
   3 C    3     4.2742     8.0771    5 C    0 0 0    5 C   -1 0 0    5 C    0 1 0
   3 C    5     4.9354     9.3266    1 C    1 1 0    2 C    0 1 0    4 C    0-1 0
                                     6 C   -1 0 0    7 C   -1-1 0

   4 C    3     1.4247     2.6924   10 C    0 0 0   11 C    0 1 0   13 C    0 0 0
   4 C    4     2.4677     4.6633    2 C    0 1 0    3 C    0 0 0    5 C    0 1 0
                                     7 C    0 0 0
   4 C    2     2.8495     5.3847    8 C    0 1 0    9 C    0 0 0
   4 C    6     3.7695     7.1233   12 C    0 0 0   12 C    0 1 0   14 C   -1 0 0
                                    14 C    0 1 0   15 C    0 0 0   15 C   -1 0 0
   4 C    6     4.2742     8.0771    1 C    0 0 0    1 C    1 1 0    1 C    0 1 0
                                     6 C    0 0 0    6 C   -1 0 0    6 C    0 1 0
   4 C    4     4.9354     9.3266    2 C    0 0 0    3 C    0 1 0    5 C   -1 0 0
                                     7 C   -1 0 0

   5 C    2     1.4247     2.6924   11 C    0 0 0   14 C    0 0 0
   5 C    5     2.4677     4.6633    1 C    1 0 0    2 C    0 0 0    4 C    0-1 0
                                     6 C    0 0 0    7 C    0-1 0
   5 C    3     2.8495     5.3847    9 C    1 0 0   12 C    0 0 0   13 C    0-1 0
   5 C    6     3.7695     7.1233    8 C    0 0 0    8 C    1 0 0   10 C    1 0 0
                                    10 C    0-1 0   15 C    0 0 0   15 C    0-1 0
   5 C    3     4.2742     8.0771    3 C    0 0 0    3 C    1 0 0    3 C    0-1 0
   5 C    5     4.9354     9.3266    1 C    0 0 0    2 C    1 0 0    4 C    1 0 0
                                     6 C    0-1 0    7 C    0 0 0

   6 C    3     1.4247     2.6924   12 C    0 0 0   14 C    0 0 0   15 C    0 0 0
   6 C    4     2.4677     4.6633    2 C    0 0 0    3 C    0 0 0    5 C    0 0 0
                                     7 C    0 0 0
   6 C    3     2.8495     5.3847   10 C    1 0 0   11 C    0 0 0   13 C    0 0 0
   6 C    4     3.7695     7.1233    8 C    0 0 0    8 C    1 1 0    9 C    0 0 0
                                     9 C    1 0 0
   6 C    6     4.2742     8.0771    1 C    0 0 0    1 C    1 1 0    1 C    1 0 0
                                     4 C    0 0 0    4 C    1 0 0    4 C    0-1 0
   6 C    4     4.9354     9.3266    2 C    1 1 0    3 C    1 0 0    5 C    0 1 0
                                     7 C    0-1 0

   7 C    2     1.4247     2.6924   13 C    0 0 0   15 C    0 0 0
   7 C    5     2.4677     4.6633    1 C    1 1 0    3 C    0 0 0    4 C    0 0 0
                                     5 C    0 1 0    6 C    0 0 0
   7 C    3     2.8495     5.3847    8 C    1 1 0   11 C    0 1 0   12 C    0 0 0
   7 C    6     3.7695     7.1233    9 C    0 0 0    9 C    1 1 0   10 C    0 0 0
                                    10 C    1 0 0   14 C    0 0 0   14 C    0 1 0
   7 C    3     4.2742     8.0771    2 C    0 0 0    2 C    1 1 0    2 C    0 1 0
   7 C    5     4.9354     9.3266    1 C    0 0 0    3 C    1 1 0    4 C    1 0 0
                                     5 C    0 0 0    6 C    0 1 0

   8 C    2     1.4247     2.6924    1 C    0 0 0    2 C    0 0 0
   8 C    5     2.4677     4.6633    9 C    0 0 0   10 C    0-1 0   11 C    0 0 0
                                    12 C    0 0 0   15 C   -1-1 0
   8 C    3     2.8495     5.3847    3 C    0 0 0    4 C    0-1 0    7 C   -1-1 0
   8 C    4     3.7695     7.1233    5 C    0 0 0    5 C   -1 0 0    6 C    0 0 0
                                     6 C   -1-1 0
   8 C    6     4.2742     8.0771   13 C    0 0 0   13 C   -1-1 0   13 C    0-1 0
                                    14 C    0 0 0   14 C   -1-1 0   14 C   -1 0 0
   8 C    5     4.9354     9.3266    9 C    0-1 0   10 C    0 0 0   11 C   -1 0 0
                                    12 C   -1-1 0   15 C    0 0 0

   9 C    2     1.4247     2.6924    1 C    0 0 0    3 C    0 0 0
   9 C    5     2.4677     4.6633    8 C    0 0 0   10 C    0 0 0   12 C    0 0 0
                                    13 C    0 0 0   14 C   -1 0 0
   9 C    3     2.8495     5.3847    2 C    0 0 0    4 C    0 0 0    5 C   -1 0 0
   9 C    4     3.7695     7.1233    6 C    0 0 0    6 C   -1 0 0    7 C    0 0 0
                                     7 C   -1-1 0
   9 C    6     4.2742     8.0771   11 C    0 0 0   11 C   -1 0 0   11 C    0 1 0
                                    15 C    0 0 0   15 C   -1-1 0   15 C   -1 0 0
   9 C    5     4.9354     9.3266    8 C    0 1 0   10 C    0-1 0   12 C   -1 0 0
                                    13 C   -1-1 0   14 C    0 0 0

  10 C    1     1.4247     2.6924    4 C    0 0 0
  10 C    6     2.4677     4.6633    8 C    0 1 0    9 C    0 0 0   11 C    0 1 0
                                    13 C    0 0 0   14 C   -1 0 0   15 C   -1 0 0
  10 C    3     2.8495     5.3847    2 C    0 1 0    3 C    0 0 0    6 C   -1 0 0
  10 C    6     3.7695     7.1233    1 C    0 0 0    1 C    0 1 0    5 C   -1 0 0
                                     5 C    0 1 0    7 C    0 0 0    7 C   -1 0 0
  10 C    3     4.2742     8.0771   12 C    0 0 0   12 C   -1 0 0   12 C    0 1 0
  10 C    6     4.9354     9.3266    8 C    0 0 0    9 C    0 1 0   11 C   -1 0 0
                                    13 C   -1 0 0   14 C    0 1 0   15 C    0 0 0

  11 C    3     1.4247     2.6924    2 C    0 0 0    4 C    0-1 0    5 C    0 0 0
  11 C    5     2.4677     4.6633    8 C    0 0 0   10 C    0-1 0   12 C    0 0 0
                                    13 C    0-1 0   14 C    0 0 0
  11 C    2     2.8495     5.3847    6 C    0 0 0    7 C    0-1 0
  11 C    4     3.7695     7.1233    1 C    0 0 0    1 C    1 0 0    3 C    0 0 0
                                     3 C    0-1 0
  11 C    6     4.2742     8.0771    9 C    0 0 0    9 C    1 0 0    9 C    0-1 0
                                    15 C    0 0 0   15 C   -1-1 0   15 C    0-1 0
  11 C    5     4.9354     9.3266    8 C    1 0 0   10 C    1 0 0   12 C    0-1 0
                                    13 C    0 0 0   14 C   -1-1 0

  12 C    3     1.4247     2.6924    2 C    0 0 0    3 C    0 0 0    6 C    0 0 0
  12 C    6     2.4677     4.6633    8 C    0 0 0    9 C    0 0 0   11 C    0 0 0
                                    13 C    0 0 0   14 C    0 0 0   15 C    0 0 0
  12 C    3     2.8495     5.3847    1 C    0 0 0    5 C    0 0 0    7 C    0 0 0
  12 C    2     3.7695     7.1233    4 C    0 0 0    4 C    0-1 0
  12 C    3     4.2742     8.0771   10 C    0 0 0   10 C    1 0 0   10 C    0-1 0
  12 C    6     4.9354     9.3266    8 C    1 1 0    9 C    1 0 0   11 C    0 1 0
                                    13 C    0-1 0   14 C   -1 0 0   15 C   -1-1 0

  13 C    3     1.4247     2.6924    3 C    0 0 0    4 C    0 0 0    7 C    0 0 0
  13 C    5     2.4677     4.6633    9 C    0 0 0   10 C    0 0 0   11 C    0 1 0
                                    12 C    0 0 0   15 C    0 0 0
  13 C    2     2.8495     5.3847    5 C    0 1 0    6 C    0 0 0
  13 C    4     3.7695     7.1233    1 C    0 0 0    1 C    1 1 0    2 C    0 0 0
                                     2 C    0 1 0
  13 C    6     4.2742     8.0771    8 C    0 0 0    8 C    1 1 0    8 C    0 1 0
                                    14 C    0 0 0   14 C   -1 0 0   14 C    0 1 0
  13 C    5     4.9354     9.3266    9 C    1 1 0   10 C    1 0 0   11 C    0 0 0
                                    12 C    0 1 0   15 C   -1 0 0

  14 C    2     1.4247     2.6924    5 C    0 0 0    6 C    0 0 0
  14 C    5     2.4677     4.6633    9 C    1 0 0   10 C    1 0 0   11 C    0 0 0
                                    12 C    0 0 0   15 C    0 0 0
  14 C    2     2.8495     5.3847    1 C    1 0 0    2 C    0 0 0
  14 C    6     3.7695     7.1233    3 C    0 0 0    3 C    1 0 0    4 C    1 0 0
                                     4 C    0-1 0    7 C    0 0 0    7 C    0-1 0
  14 C    6     4.2742     8.0771    8 C    0 0 0    8 C    1 1 0    8 C    1 0 0
                                    13 C    0 0 0   13 C    1 0 0   13 C    0-1 0
  14 C    5     4.9354     9.3266    9 C    0 0 0   10 C    0-1 0   11 C    1 1 0
                                    12 C    1 0 0   15 C    0-1 0

  15 C    2     1.4247     2.6924    6 C    0 0 0    7 C    0 0 0
  15 C    5     2.4677     4.6633    8 C    1 1 0   10 C    1 0 0   12 C    0 0 0
                                    13 C    0 0 0   14 C    0 0 0
  15 C    2     2.8495     5.3847    1 C    1 1 0    3 C    0 0 0
  15 C    6     3.7695     7.1233    2 C    0 0 0    2 C    1 1 0    4 C    0 0 0
                                     4 C    1 0 0    5 C    0 0 0    5 C    0 1 0
  15 C    6     4.2742     8.0771    9 C    0 0 0    9 C    1 1 0    9 C    1 0 0
                                    11 C    0 0 0   11 C    1 1 0   11 C    0 1 0
  15 C    5     4.9354     9.3266    8 C    0 0 0   10 C    0 0 0   12 C    1 1 0
                                    13 C    1 0 0   14 C    0 1 0


 SYMMETRY ALLOWED INTERNAL DEGREE(S) OF FREEDOM:  42
 TTTTTTTTTTTTTTTTTTTTTTTTTTTTTT SYMM        TELAPSE        2.54 TCPU        0.99
 TTTTTTTTTTTTTTTTTTTTTTTTTTTTTT INT_SCREEN  TELAPSE        2.55 TCPU        0.99

 *******************************************************************************
 *                             OPTIMIZATION STARTS                             *
 *******************************************************************************
 RECLASIFICATION OF INDICES FOR INTEGRAL CALC ACCORDING TO DIFFERENT CRITERIA:
           FIXDELTE                  FIXDELTX              FIXDELTN
          0.10000000               0.80000000                 42
 DEFAULT MAX NUM OF POINTS  100
 *******************************************************************************

 *******************************************************************************
 COORDINATE OPTIMIZATION - POINT    1
 INFORMATION **** EXCBUF **** EXCH. BIPO BUFFER: WORDS USED =           0

 DFT PARAMETERS

     ATOM       ELECTRONS   NET CHARGE   R(ANGSTROM)
   1   6  C       6.0000      0.0000     0.77000000

 SIZE OF GRID=     504293
 TTTTTTTTTTTTTTTTTTTTTTTTTTTTTT MAKE_GRID2  TELAPSE        2.90 TCPU        1.34
 BECKE WEIGHT FUNCTION
 RADSAFE =     2.00
 TOLERANCES - DENSITY:10**- 6; POTENTIAL:10**- 9; GRID WGT:10**-14

 RADIAL INTEGRATION  - INTERVALS (POINTS,UPPER LIMIT):            1( 75,  4.0*R)

 ANGULAR INTEGRATION - INTERVALS (ACCURACY LEVEL [N. POINTS] UPPER LIMIT):
  1(  4[  86]   0.2)  2(  8[ 194]   0.5)  3( 12[ 350]   0.9)  4( 16[ 974]   3.5)
  5( 12[ 350]9999.0)
 TTTTTTTTTTTTTTTTTTTTTTTTTTTTTT INT_CALC    TELAPSE        2.92 TCPU        1.36

 *******************************************************************************
 Final                                                                           
 CRYSTAL - SCF - TYPE OF CALCULATION :  RESTRICTED CLOSED SHELL
 *******************************************************************************

 CAPPA:IS1  8;IS2  8;IS3  8; K PTS MONK NET 260; SYMMOPS:K SPACE   2;G SPACE   1

 TTTTTTTTTTTTTTTTTTTTTTTTTTTTTT SDIK        TELAPSE        2.97 TCPU        1.41

 AAAAAAAAAAAAAAAAAAAAAAAAAAAAAAAAAAAAAAAAAAAAAAAAAAAAAAAAAAAAAAAAAAAAAAAAAAAAAAA
         ATOMIC WAVEFUNCTION(S)


 NUCLEAR CHARGE  6.0  SYMMETRY SPECIES            S    P
 N. ELECTRONS    6.0  NUMBER OF PRIMITIVE GTOS   10    6
                      NUMBER OF CONTRACTED GTOS   4    3
                      NUMBER OF CLOSED SHELLS     2    0
                      OPEN SHELL OCCUPATION       0    2

  ZNUC SCFIT  TOTAL HF ENERGY   KINETIC ENERGY   VIRIAL THEOREM ACCURACY
   6.0  10   -3.768111494E+01  3.771190961E+01 -1.999183423E+00  3.4E-06

 AAAAAAAAAAAAAAAAAAAAAAAAAAAAAAAAAAAAAAAAAAAAAAAAAAAAAAAAAAAAAAAAAAAAAAAAAAAAAAA

 CHARGE NORMALIZATION FACTOR   1.00000000
 TOTAL ATOMIC CHARGES:
   6.0000000   6.0000000   6.0000000   6.0000000   6.0000000   6.0000000
   6.0000000   6.0000000   6.0000000   6.0000000   6.0000000   6.0000000
   6.0000000   6.0000000   6.0000000
 TTTTTTTTTTTTTTTTTTTTTTTTTTTTTT MOQGAD      TELAPSE        2.99 TCPU        1.43
 TTTTTTTTTTTTTTTTTTTTTTTTTTTTTT SHELLXN     TELAPSE        3.61 TCPU        2.05
 TTTTTTTTTTTTTTTTTTTTTTTTTTTTTT MONMO3      TELAPSE        3.72 TCPU        2.16
 NUMERICALLY INTEGRATED DENSITY     89.9998015362
 TTTTTTTTTTTTTTTTTTTTTTTTTTTTTT NUMDFT      TELAPSE        3.88 TCPU        2.31
 CYC   0 ETOT(AU) -5.736301182494E+02 DETOT -5.74E+02 tst  0.00E+00 PX  1.00E+00
 TTTTTTTTTTTTTTTTTTTTTTTTTTTTTT DIIS        TELAPSE        3.89 TCPU        2.32
 TTTTTTTTTTTTTTTTTTTTTTTTTTTTTT FDIK        TELAPSE        4.06 TCPU        2.49
 POSSIBLY CONDUCTING STATE - EFERMI(AU) -2.3093075E-01 (RES. CHARGE  1.85E-13;IT. 12)
 TTTTTTTTTTTTTTTTTTTTTTTTTTTTTT PDIG        TELAPSE        4.15 TCPU        2.58
 CHARGE NORMALIZATION FACTOR   1.00000000
 TOTAL ATOMIC CHARGES:
   6.0717970   6.0520843   6.0521120   6.1676812   6.0956523   6.0541649
   6.0957924   5.9319425   5.9318861   5.6677002   5.9591189   6.0246890
   5.9591237   5.9680352   5.9682203
 TTTTTTTTTTTTTTTTTTTTTTTTTTTTTT MOQGAD      TELAPSE        4.15 TCPU        2.58
 TTTTTTTTTTTTTTTTTTTTTTTTTTTTTT SHELLXN     TELAPSE        4.87 TCPU        3.30
 TTTTTTTTTTTTTTTTTTTTTTTTTTTTTT MONMO3      TELAPSE        5.00 TCPU        3.43
 NUMERICALLY INTEGRATED DENSITY     89.9998453316
 TTTTTTTTTTTTTTTTTTTTTTTTTTTTTT NUMDFT      TELAPSE        5.26 TCPU        3.69
 CYC   1 ETOT(AU) -5.703212751967E+02 DETOT  3.31E+00 tst  0.00E+00 PX  1.00E+00
 TTTTTTTTTTTTTTTTTTTTTTTTTTTTTT DIIS        TELAPSE        5.27 TCPU        3.70
 DIIS TEST: 0.79065E+00 AT SCF   CYCLE   1 - MIX   30 %
 TTTTTTTTTTTTTTTTTTTTTTTTTTTTTT FDIK        TELAPSE        5.45 TCPU        3.88
 POSSIBLY CONDUCTING STATE - EFERMI(AU) -1.8793542E-01 (RES. CHARGE  0.00E+00;IT. 12)
 TTTTTTTTTTTTTTTTTTTTTTTTTTTTTT PDIG        TELAPSE        5.56 TCPU        3.99
 CHARGE NORMALIZATION FACTOR   1.00000000
 TOTAL ATOMIC CHARGES:
   5.8402340   5.8130689   5.8129242   5.6679494   5.6892838   5.7465443
   5.6891648   6.2620861   6.2614310   7.5135679   5.9572599   5.8077849
   5.9570959   5.9911746   5.9904304
 TTTTTTTTTTTTTTTTTTTTTTTTTTTTTT MOQGAD      TELAPSE        5.56 TCPU        3.99
 TTTTTTTTTTTTTTTTTTTTTTTTTTTTTT SHELLXN     TELAPSE        6.27 TCPU        4.70
 TTTTTTTTTTTTTTTTTTTTTTTTTTTTTT MONMO3      TELAPSE        6.41 TCPU        4.84
 NUMERICALLY INTEGRATED DENSITY     89.9998085100
 TTTTTTTTTTTTTTTTTTTTTTTTTTTTTT NUMDFT      TELAPSE        6.66 TCPU        5.09
 CYC   2 ETOT(AU) -5.698368854231E+02 DETOT  4.84E-01 tst  3.70E-02 PX  3.11E-01
 TTTTTTTTTTTTTTTTTTTTTTTTTTTTTT DIIS        TELAPSE        6.68 TCPU        5.10
 DIIS TEST: 0.47145E+01 AT SCF   CYCLE   2 - DIIS ACTIVE - HISTORY:     2 CYCLES
 TTTTTTTTTTTTTTTTTTTTTTTTTTTTTT FDIK        TELAPSE        6.86 TCPU        5.28
 POSSIBLY CONDUCTING STATE - EFERMI(AU) -1.5535648E-01 (RES. CHARGE  1.84E-11;IT.  8)
 TTTTTTTTTTTTTTTTTTTTTTTTTTTTTT PDIG        TELAPSE        6.95 TCPU        5.38
 CHARGE NORMALIZATION FACTOR   1.00000000
 TOTAL ATOMIC CHARGES:
   6.2644742   5.9039438   5.9040540   5.8492958   6.6013981   5.9341980
   6.6012976   5.9374835   5.9384259   5.1263837   5.9867396   5.9719732
   5.9868341   5.9968007   5.9966977
 TTTTTTTTTTTTTTTTTTTTTTTTTTTTTT MOQGAD      TELAPSE        6.96 TCPU        5.38
 TTTTTTTTTTTTTTTTTTTTTTTTTTTTTT SHELLXN     TELAPSE        7.67 TCPU        6.09
 TTTTTTTTTTTTTTTTTTTTTTTTTTTTTT MONMO3      TELAPSE        7.80 TCPU        6.23
 NUMERICALLY INTEGRATED DENSITY     89.9998107967
 TTTTTTTTTTTTTTTTTTTTTTTTTTTTTT NUMDFT      TELAPSE        8.10 TCPU        6.49
 CYC   3 ETOT(AU) -5.700310823352E+02 DETOT -1.94E-01 tst  8.44E-02 PX  3.03E-01
 TTTTTTTTTTTTTTTTTTTTTTTTTTTTTT DIIS        TELAPSE        8.11 TCPU        6.51
 DIIS TEST: 0.33298E+01 AT SCF   CYCLE   3 - DIIS ACTIVE - HISTORY:     3 CYCLES
 TTTTTTTTTTTTTTTTTTTTTTTTTTTTTT FDIK        TELAPSE        8.29 TCPU        6.69
 POSSIBLY CONDUCTING STATE - EFERMI(AU) -1.6239723E-01 (RES. CHARGE  9.96E-10;IT. 12)
 TTTTTTTTTTTTTTTTTTTTTTTTTTTTTT PDIG        TELAPSE        8.39 TCPU        6.79
 CHARGE NORMALIZATION FACTOR   1.00000000
 TOTAL ATOMIC CHARGES:
   5.9614478   5.9913713   5.9914244   6.0095815   5.9160548   6.0032595
   5.9159725   6.0326774   6.0328416   5.8745301   6.0368409   6.0684481
   6.0369234   6.0637346   6.0648921
 TTTTTTTTTTTTTTTTTTTTTTTTTTTTTT MOQGAD      TELAPSE        8.39 TCPU        6.79
 TTTTTTTTTTTTTTTTTTTTTTTTTTTTTT SHELLXN     TELAPSE        9.11 TCPU        7.50
 TTTTTTTTTTTTTTTTTTTTTTTTTTTTTT MONMO3      TELAPSE        9.24 TCPU        7.63
 NUMERICALLY INTEGRATED DENSITY     89.9998112617
 TTTTTTTTTTTTTTTTTTTTTTTTTTTTTT NUMDFT      TELAPSE        9.50 TCPU        7.89
 CYC   4 ETOT(AU) -5.704152006020E+02 DETOT -3.84E-01 tst  7.39E-03 PX  1.72E-01
 TTTTTTTTTTTTTTTTTTTTTTTTTTTTTT DIIS        TELAPSE        9.51 TCPU        7.91
 DIIS TEST: 0.14215E+00 AT SCF   CYCLE   4 - DIIS ACTIVE - HISTORY:     4 CYCLES
 TTTTTTTTTTTTTTTTTTTTTTTTTTTTTT FDIK        TELAPSE        9.70 TCPU        8.09
 POSSIBLY CONDUCTING STATE - EFERMI(AU) -1.7937191E-01 (RES. CHARGE  2.70E-13;IT. 16)
 TTTTTTTTTTTTTTTTTTTTTTTTTTTTTT PDIG        TELAPSE        9.80 TCPU        8.19
 CHARGE NORMALIZATION FACTOR   1.00000000
 TOTAL ATOMIC CHARGES:
   6.2328861   5.9779861   5.9778793   6.0065859   6.2372122   5.9368752
   6.2368997   5.9201560   5.9199771   6.1426496   5.9174078   5.9329971
   5.9171853   5.8232342   5.8200686
 TTTTTTTTTTTTTTTTTTTTTTTTTTTTTT MOQGAD      TELAPSE        9.80 TCPU        8.19
 TTTTTTTTTTTTTTTTTTTTTTTTTTTTTT SHELLXN     TELAPSE       10.51 TCPU        8.90
 TTTTTTTTTTTTTTTTTTTTTTTTTTTTTT MONMO3      TELAPSE       10.65 TCPU        9.04
 NUMERICALLY INTEGRATED DENSITY     89.9998185859
 TTTTTTTTTTTTTTTTTTTTTTTTTTTTTT NUMDFT      TELAPSE       11.00 TCPU        9.39
 CYC   5 ETOT(AU) -5.703988619678E+02 DETOT  1.63E-02 tst  1.81E-03 PX  6.29E-02
 TTTTTTTTTTTTTTTTTTTTTTTTTTTTTT DIIS        TELAPSE       11.03 TCPU        9.42
 DIIS TEST: 0.31956E+00 AT SCF   CYCLE   5 - DIIS ACTIVE - HISTORY:     5 CYCLES
 TTTTTTTTTTTTTTTTTTTTTTTTTTTTTT FDIK        TELAPSE       11.21 TCPU        9.59
 POSSIBLY CONDUCTING STATE - EFERMI(AU) -1.8171548E-01 (RES. CHARGE  2.57E-10;IT. 16)
 TTTTTTTTTTTTTTTTTTTTTTTTTTTTTT PDIG        TELAPSE       11.31 TCPU        9.69
 CHARGE NORMALIZATION FACTOR   1.00000000
 TOTAL ATOMIC CHARGES:
   5.9813953   5.9579845   5.9581317   5.9632562   6.0976528   5.9713113
   6.0986572   6.0338048   6.0336975   5.9702397   5.9400280   5.9666869
   5.9401547   6.0419263   6.0450732
 TTTTTTTTTTTTTTTTTTTTTTTTTTTTTT MOQGAD      TELAPSE       11.31 TCPU        9.69
 TTTTTTTTTTTTTTTTTTTTTTTTTTTTTT SHELLXN     TELAPSE       12.02 TCPU       10.40
 TTTTTTTTTTTTTTTTTTTTTTTTTTTTTT MONMO3      TELAPSE       12.16 TCPU       10.54
 NUMERICALLY INTEGRATED DENSITY     89.9998199249
 TTTTTTTTTTTTTTTTTTTTTTTTTTTTTT NUMDFT      TELAPSE       12.41 TCPU       10.79
 CYC   6 ETOT(AU) -5.704284575442E+02 DETOT -2.96E-02 tst  8.06E-04 PX  3.61E-02
 TTTTTTTTTTTTTTTTTTTTTTTTTTTTTT DIIS        TELAPSE       12.43 TCPU       10.81
 DIIS TEST: 0.49545E-01 AT SCF   CYCLE   6 - DIIS ACTIVE - HISTORY:     6 CYCLES
 TTTTTTTTTTTTTTTTTTTTTTTTTTTTTT FDIK        TELAPSE       12.61 TCPU       10.96
 POSSIBLY CONDUCTING STATE - EFERMI(AU) -1.7964623E-01 (RES. CHARGE  1.49E-12;IT. 12)
 TTTTTTTTTTTTTTTTTTTTTTTTTTTTTT PDIG        TELAPSE       12.71 TCPU       11.06
 CHARGE NORMALIZATION FACTOR   1.00000000
 TOTAL ATOMIC CHARGES:
   6.0431855   5.9732238   5.9732002   5.9817239   6.0416340   5.9568985
   6.0404304   6.0340088   6.0349258   6.0174159   6.0089341   5.9844213
   6.0085735   5.9523877   5.9490367
 TTTTTTTTTTTTTTTTTTTTTTTTTTTTTT MOQGAD      TELAPSE       12.71 TCPU       11.06
 TTTTTTTTTTTTTTTTTTTTTTTTTTTTTT SHELLXN     TELAPSE       13.42 TCPU       11.77
 TTTTTTTTTTTTTTTTTTTTTTTTTTTTTT MONMO3      TELAPSE       13.56 TCPU       11.91
 NUMERICALLY INTEGRATED DENSITY     89.9998178355
 TTTTTTTTTTTTTTTTTTTTTTTTTTTTTT NUMDFT      TELAPSE       13.81 TCPU       12.16
 CYC   7 ETOT(AU) -5.704334012509E+02 DETOT -4.94E-03 tst  1.88E-04 PX  1.79E-02
 TTTTTTTTTTTTTTTTTTTTTTTTTTTTTT DIIS        TELAPSE       13.83 TCPU       12.18
 DIIS TEST: 0.12804E-01 AT SCF   CYCLE   7 - DIIS ACTIVE - HISTORY:     7 CYCLES
 TTTTTTTTTTTTTTTTTTTTTTTTTTTTTT FDIK        TELAPSE       14.01 TCPU       12.36
 POSSIBLY CONDUCTING STATE - EFERMI(AU) -1.7969104E-01 (RES. CHARGE  8.83E-11;IT.  8)
 TTTTTTTTTTTTTTTTTTTTTTTTTTTTTT PDIG        TELAPSE       14.11 TCPU       12.46
 CHARGE NORMALIZATION FACTOR   1.00000000
 TOTAL ATOMIC CHARGES:
   6.0762083   5.9767822   5.9766895   5.9914874   6.0519896   5.9799768
   6.0538512   5.9503012   5.9476959   6.0675057   5.9591079   6.0005340
   5.9592206   6.0022067   6.0064431
 TTTTTTTTTTTTTTTTTTTTTTTTTTTTTT MOQGAD      TELAPSE       14.11 TCPU       12.46
 TTTTTTTTTTTTTTTTTTTTTTTTTTTTTT SHELLXN     TELAPSE       14.83 TCPU       13.17
 TTTTTTTTTTTTTTTTTTTTTTTTTTTTTT MONMO3      TELAPSE       14.96 TCPU       13.30
 NUMERICALLY INTEGRATED DENSITY     89.9998189398
 TTTTTTTTTTTTTTTTTTTTTTTTTTTTTT NUMDFT      TELAPSE       15.32 TCPU       13.66
 CYC   8 ETOT(AU) -5.704328558873E+02 DETOT  5.45E-04 tst  9.92E-05 PX  1.55E-02
 TTTTTTTTTTTTTTTTTTTTTTTTTTTTTT DIIS        TELAPSE       15.35 TCPU       13.69
 DIIS TEST: 0.15914E-01 AT SCF   CYCLE   8 - DIIS ACTIVE - HISTORY:     8 CYCLES
 TTTTTTTTTTTTTTTTTTTTTTTTTTTTTT FDIK        TELAPSE       15.52 TCPU       13.86
 POSSIBLY CONDUCTING STATE - EFERMI(AU) -1.7951205E-01 (RES. CHARGE  2.20E-12;IT. 10)
 TTTTTTTTTTTTTTTTTTTTTTTTTTTTTT PDIG        TELAPSE       15.61 TCPU       13.95
 CHARGE NORMALIZATION FACTOR   1.00000000
 TOTAL ATOMIC CHARGES:
   6.0314960   5.9777257   5.9779653   5.9936764   6.0481312   5.9730652
   6.0475144   6.0172598   6.0196451   6.0380255   5.9660892   5.9925041
   5.9662416   5.9761056   5.9745550
 TTTTTTTTTTTTTTTTTTTTTTTTTTTTTT MOQGAD      TELAPSE       15.61 TCPU       13.95
 TTTTTTTTTTTTTTTTTTTTTTTTTTTTTT SHELLXN     TELAPSE       16.32 TCPU       14.66
 TTTTTTTTTTTTTTTTTTTTTTTTTTTTTT MONMO3      TELAPSE       16.46 TCPU       14.80
 NUMERICALLY INTEGRATED DENSITY     89.9998183929
 TTTTTTTTTTTTTTTTTTTTTTTTTTTTTT NUMDFT      TELAPSE       16.81 TCPU       15.15
 CYC   9 ETOT(AU) -5.704348589158E+02 DETOT -2.00E-03 tst  4.68E-05 PX  9.26E-03
 TTTTTTTTTTTTTTTTTTTTTTTTTTTTTT DIIS        TELAPSE       16.84 TCPU       15.18
 DIIS TEST: 0.96472E-03 AT SCF   CYCLE   9 - DIIS ACTIVE - HISTORY:     9 CYCLES
 TTTTTTTTTTTTTTTTTTTTTTTTTTTTTT FDIK        TELAPSE       17.01 TCPU       15.34
 POSSIBLY CONDUCTING STATE - EFERMI(AU) -1.7968631E-01 (RES. CHARGE  5.47E-13;IT. 12)
 TTTTTTTTTTTTTTTTTTTTTTTTTTTTTT PDIG        TELAPSE       17.11 TCPU       15.44
 CHARGE NORMALIZATION FACTOR   1.00000000
 TOTAL ATOMIC CHARGES:
   6.0313627   5.9744555   5.9741279   5.9886850   6.0389949   5.9688058
   6.0401051   6.0116293   6.0079981   6.0425095   5.9815088   5.9870891
   5.9810684   5.9844890   5.9871710
 TTTTTTTTTTTTTTTTTTTTTTTTTTTTTT MOQGAD      TELAPSE       17.11 TCPU       15.44
 TTTTTTTTTTTTTTTTTTTTTTTTTTTTTT SHELLXN     TELAPSE       17.82 TCPU       16.16
 TTTTTTTTTTTTTTTTTTTTTTTTTTTTTT MONMO3      TELAPSE       17.96 TCPU       16.29
 NUMERICALLY INTEGRATED DENSITY     89.9998181848
 TTTTTTTTTTTTTTTTTTTTTTTTTTTTTT NUMDFT      TELAPSE       18.31 TCPU       16.65
 CYC  10 ETOT(AU) -5.704349439247E+02 DETOT -8.50E-05 tst  2.70E-06 PX  2.89E-03
 TTTTTTTTTTTTTTTTTTTTTTTTTTTTTT DIIS        TELAPSE       18.35 TCPU       16.68
 DIIS TEST: 0.23273E-03 AT SCF   CYCLE  10 - DIIS ACTIVE - HISTORY:    10 CYCLES
 TTTTTTTTTTTTTTTTTTTTTTTTTTTTTT FDIK        TELAPSE       18.51 TCPU       16.84
 POSSIBLY CONDUCTING STATE - EFERMI(AU) -1.7969848E-01 (RES. CHARGE  2.10E-11;IT.  8)
 TTTTTTTTTTTTTTTTTTTTTTTTTTTTTT PDIG        TELAPSE       18.61 TCPU       16.94
 CHARGE NORMALIZATION FACTOR   1.00000000
 TOTAL ATOMIC CHARGES:
   6.0406139   5.9735307   5.9740959   5.9841683   6.0365568   5.9685703
   6.0345055   6.0097173   6.0157555   6.0446441   5.9789966   5.9902994
   5.9793614   5.9875738   5.9816105
 TTTTTTTTTTTTTTTTTTTTTTTTTTTTTT MOQGAD      TELAPSE       18.61 TCPU       16.94
 TTTTTTTTTTTTTTTTTTTTTTTTTTTTTT SHELLXN     TELAPSE       19.33 TCPU       17.65
 TTTTTTTTTTTTTTTTTTTTTTTTTTTTTT MONMO3      TELAPSE       19.46 TCPU       17.79
 NUMERICALLY INTEGRATED DENSITY     89.9998182355
 TTTTTTTTTTTTTTTTTTTTTTTTTTTTTT NUMDFT      TELAPSE       19.71 TCPU       18.04
 CYC  11 ETOT(AU) -5.704349464583E+02 DETOT -2.53E-06 tst  2.13E-06 PX  1.54E-03
 TTTTTTTTTTTTTTTTTTTTTTTTTTTTTT DIIS        TELAPSE       19.73 TCPU       18.06
 DIIS TEST: 0.21904E-03 AT SCF   CYCLE  11 - DIIS ACTIVE - HISTORY:    11 CYCLES
 TTTTTTTTTTTTTTTTTTTTTTTTTTTTTT FDIK        TELAPSE       19.92 TCPU       18.24
 POSSIBLY CONDUCTING STATE - EFERMI(AU) -1.7965274E-01 (RES. CHARGE  4.24E-11;IT. 10)
 TTTTTTTTTTTTTTTTTTTTTTTTTTTTTT PDIG        TELAPSE       20.02 TCPU       18.34
 CHARGE NORMALIZATION FACTOR   1.00000000
 TOTAL ATOMIC CHARGES:
   6.0332319   5.9740601   5.9738361   5.9836730   6.0366843   5.9687856
   6.0386115   6.0153468   6.0116909   6.0478714   5.9797164   5.9918576
   5.9795654   5.9797095   5.9853596
 TTTTTTTTTTTTTTTTTTTTTTTTTTTTTT MOQGAD      TELAPSE       20.02 TCPU       18.35
 TTTTTTTTTTTTTTTTTTTTTTTTTTTTTT SHELLXN     TELAPSE       20.73 TCPU       19.06
 TTTTTTTTTTTTTTTTTTTTTTTTTTTTTT MONMO3      TELAPSE       20.87 TCPU       19.19
 NUMERICALLY INTEGRATED DENSITY     89.9998181802
 TTTTTTTTTTTTTTTTTTTTTTTTTTTTTT NUMDFT      TELAPSE       21.25 TCPU       19.57
 CYC  12 ETOT(AU) -5.704349631559E+02 DETOT -1.67E-05 tst  2.99E-06 PX  1.22E-03
 TTTTTTTTTTTTTTTTTTTTTTTTTTTTTT DIIS        TELAPSE       21.29 TCPU       19.62
 DIIS TEST: 0.82121E-04 AT SCF   CYCLE  12 - DIIS ACTIVE - HISTORY:    12 CYCLES
 TTTTTTTTTTTTTTTTTTTTTTTTTTTTTT FDIK        TELAPSE       21.65 TCPU       19.95
 POSSIBLY CONDUCTING STATE - EFERMI(AU) -1.7964219E-01 (RES. CHARGE  4.62E-10;IT.  8)
 TTTTTTTTTTTTTTTTTTTTTTTTTTTTTT PDIG        TELAPSE       21.75 TCPU       20.05
 CHARGE NORMALIZATION FACTOR   1.00000000
 TOTAL ATOMIC CHARGES:
   6.0315387   5.9740863   5.9740829   5.9855413   6.0384338   5.9688401
   6.0374791   6.0123532   6.0134297   6.0477460   5.9798188   5.9907006
   5.9796549   5.9845819   5.9817127
 TTTTTTTTTTTTTTTTTTTTTTTTTTTTTT MOQGAD      TELAPSE       21.75 TCPU       20.05
 TTTTTTTTTTTTTTTTTTTTTTTTTTTTTT SHELLXN     TELAPSE       22.46 TCPU       20.77
 TTTTTTTTTTTTTTTTTTTTTTTTTTTTTT MONMO3      TELAPSE       22.60 TCPU       20.90
 NUMERICALLY INTEGRATED DENSITY     89.9998181607
 TTTTTTTTTTTTTTTTTTTTTTTTTTTTTT NUMDFT      TELAPSE       22.98 TCPU       21.28
 CYC  13 ETOT(AU) -5.704349695212E+02 DETOT -6.37E-06 tst  1.20E-06 PX  6.95E-04
 TTTTTTTTTTTTTTTTTTTTTTTTTTTTTT DIIS        TELAPSE       23.03 TCPU       21.34
 DIIS TEST: 0.24958E-04 AT SCF   CYCLE  13 - DIIS ACTIVE - HISTORY:    13 CYCLES
 TTTTTTTTTTTTTTTTTTTTTTTTTTTTTT FDIK        TELAPSE       23.25 TCPU       21.56
 POSSIBLY CONDUCTING STATE - EFERMI(AU) -1.7964630E-01 (RES. CHARGE  9.83E-10;IT.  6)
 TTTTTTTTTTTTTTTTTTTTTTTTTTTTTT PDIG        TELAPSE       23.35 TCPU       21.65
 CHARGE NORMALIZATION FACTOR   1.00000000
 TOTAL ATOMIC CHARGES:
   6.0336099   5.9741582   5.9741730   5.9861533   6.0370791   5.9688164
   6.0371690   6.0130774   6.0130571   6.0470576   5.9793135   5.9900739
   5.9792315   5.9835201   5.9835102
 TTTTTTTTTTTTTTTTTTTTTTTTTTTTTT MOQGAD      TELAPSE       23.35 TCPU       21.65
 TTTTTTTTTTTTTTTTTTTTTTTTTTTTTT SHELLXN     TELAPSE       24.07 TCPU       22.37
 TTTTTTTTTTTTTTTTTTTTTTTTTTTTTT MONMO3      TELAPSE       24.20 TCPU       22.50
 NUMERICALLY INTEGRATED DENSITY     89.9998181769
 TTTTTTTTTTTTTTTTTTTTTTTTTTTTTT NUMDFT      TELAPSE       24.46 TCPU       22.76
 CYC  14 ETOT(AU) -5.704349721693E+02 DETOT -2.65E-06 tst  2.16E-07 PX  3.28E-04
 TTTTTTTTTTTTTTTTTTTTTTTTTTTTTT DIIS        TELAPSE       24.48 TCPU       22.78
 DIIS TEST: 0.62021E-06 AT SCF   CYCLE  14 - DIIS ACTIVE - HISTORY:    14 CYCLES
 TTTTTTTTTTTTTTTTTTTTTTTTTTTTTT FDIK        TELAPSE       24.66 TCPU       22.96
 POSSIBLY CONDUCTING STATE - EFERMI(AU) -1.7964411E-01 (RES. CHARGE  6.55E-10;IT.  6)
 TTTTTTTTTTTTTTTTTTTTTTTTTTTTTT PDIG        TELAPSE       24.76 TCPU       23.06
 CHARGE NORMALIZATION FACTOR   1.00000000
 TOTAL ATOMIC CHARGES:
   6.0336479   5.9742941   5.9742963   5.9860525   6.0370183   5.9688831
   6.0369943   6.0130046   6.0129732   6.0474527   5.9793081   5.9899444
   5.9792046   5.9835018   5.9834239
 TTTTTTTTTTTTTTTTTTTTTTTTTTTTTT MOQGAD      TELAPSE       24.76 TCPU       23.06
 TTTTTTTTTTTTTTTTTTTTTTTTTTTTTT SHELLXN     TELAPSE       25.48 TCPU       23.77
 TTTTTTTTTTTTTTTTTTTTTTTTTTTTTT MONMO3      TELAPSE       25.61 TCPU       23.90
 NUMERICALLY INTEGRATED DENSITY     89.9998181749
 TTTTTTTTTTTTTTTTTTTTTTTTTTTTTT NUMDFT      TELAPSE       25.97 TCPU       24.27
 CYC  15 ETOT(AU) -5.704349721702E+02 DETOT -8.73E-10 tst  2.98E-09 PX  5.43E-05
 TTTTTTTTTTTTTTTTTTTTTTTTTTTTTT DIIS        TELAPSE       26.01 TCPU       24.31
 DIIS TEST: 0.61248E-07 AT SCF   CYCLE  15 - DIIS ACTIVE - HISTORY:    15 CYCLES
 TTTTTTTTTTTTTTTTTTTTTTTTTTTTTT FDIK        TELAPSE       26.20 TCPU       24.49
 POSSIBLY CONDUCTING STATE - EFERMI(AU) -1.7964426E-01 (RES. CHARGE  4.26E-14;IT.  6)
 TTTTTTTTTTTTTTTTTTTTTTTTTTTTTT PDIG        TELAPSE       26.30 TCPU       24.59
 CHARGE NORMALIZATION FACTOR   1.00000000
 TOTAL ATOMIC CHARGES:
   6.0336435   5.9742293   5.9742598   5.9860843   6.0369210   5.9688562
   6.0370136   6.0129447   6.0130151   6.0475393   5.9793018   5.9899965
   5.9792346   5.9835029   5.9834572
 TTTTTTTTTTTTTTTTTTTTTTTTTTTTTT MOQGAD      TELAPSE       26.30 TCPU       24.59
 TTTTTTTTTTTTTTTTTTTTTTTTTTTTTT SHELLXN     TELAPSE       27.01 TCPU       25.30
 +++ ENERGIES IN A.U. +++
 ::: EXT EL-POLE                                  -8.0339995631037E+02
 ::: EXT EL-SPHEROPOLE                             6.2346132569538E+00
 ::: BIELET ZONE E-E                               1.1950114675762E+03
 ::: TOTAL E-E                                     3.9784612452282E+02
 ::: TOTAL E-N + N-E                              -1.5744023113693E+03
 ::: TOTAL N-N                                     1.1938506456101E+02
 ::: KINETIC ENERGY                                5.6686923835436E+02
 ::: PSEUDO TOTAL   ENERGY                        -4.9030188393113E+02
 ::: VIRIAL COEFFICIENT                            1.0724266420158E+00
 TTTTTTTTTTTTTTTTTTTTTTTTTTTTTT MONMO3      TELAPSE       27.14 TCPU       25.43
 NUMERICALLY INTEGRATED DENSITY     89.9998181741
 TTTTTTTTTTTTTTTTTTTTTTTTTTTTTT NUMDFT      TELAPSE       27.40 TCPU       25.69
 CYC  16 ETOT(AU) -5.704349721431E+02 DETOT  2.71E-08 tst  3.56E-10 PX  5.43E-05

 == SCF ENDED - CONVERGENCE ON ENERGY      E(AU) -5.7043497214309E+02 CYCLES  16


 ENERGY EXPRESSION=HARTREE+FOCK EXCH*0.00000+(PBE        EXCH)*1.00000+PBE        CORR


 TOTAL ENERGY(DFT)(AU)( 16) -5.7043497214309E+02 DE 2.7E-08 tester 3.6E-10
 TTTTTTTTTTTTTTTTTTTTTTTTTTTTTT EDFT        TELAPSE       27.40 TCPU       25.69

 *******************************************************************************
 *                             FORCE CALCULATION                               *
 *******************************************************************************

 TTTTTTTTTTTTTTTTTTTTTTTTTTTTTT NUMDFG      TELAPSE       28.05 TCPU       26.34
 INFORMATION **** EXCPOG **** EXCH. BIPO BUFFER LENGTH (WORDS) =           0
 INFORMATION **** GENPOG **** BIPO BUFFER LENGTH (WORDS) =     1108700
 TTTTTTTTTTTTTTTTTTTTTTTTTTTTTT SHELXG      TELAPSE       30.56 TCPU       28.85

 CARTESIAN FORCES IN HARTREE/BOHR (ANALYTICAL)
   ATOM                     X                   Y                   Z
   1   6             6.132996314631E-02 -3.533713549906E-02 -1.890798961193E-09
   2   6            -1.331474775777E-02  5.403165346090E-03 -6.122452536770E-09
   3   6            -1.123581289123E-02  8.824731010630E-03 -1.126505950505E-08
   4   6            -6.499276542194E-02  3.746988550074E-02 -6.096352135540E-09
   5   6             4.270598593452E-02  4.922310859416E-02 -1.952926139106E-09
   6   6             3.837178603055E-02 -2.203975804110E-02 -4.898880485594E-10
   7   6            -2.131253682218E-02 -6.169714954370E-02  1.519806333076E-08
   8   6             1.458423247306E-02  6.900425483869E-02  6.132356073427E-09
   9   6            -5.254542129010E-02 -4.712868667391E-02  5.921576033987E-09
  10   6             2.569090187408E-02 -1.487393224952E-02  9.383426069441E-09
  11   6             3.656036191362E-02 -2.128449893958E-02  2.574648823146E-09
  12   6            -3.816517496097E-03  2.196749948927E-03 -3.380887763981E-09
  13   6             3.664380040409E-02 -2.102527262962E-02 -4.821903252059E-09
  14   6            -7.627418091712E-02 -2.990229409724E-02  5.289893556746E-11
  15   6            -1.239504917965E-02  8.116683243446E-02 -3.242692725556E-09

 RESULTANT FORCE     1.356692536092E-13 -2.681188604470E-14  8.198519981697E-15

 SYMMETRY ALLOWED FORCES (ANALYTICAL) (DIRECTION, FORCE)

    1  6.3418238E-02    2  3.6688790E-02    3 -1.9571634E-09    4 -7.2231258E-03
    5 -6.5352870E-03    6 -6.4937252E-09    7 -9.8041131E-03    8 -3.4043509E-03
    9 -1.2366620E-08   10 -6.4642365E-02   11 -3.7366469E-02   12 -8.0453944E-09
   13 -2.5009856E-02   14  6.3052775E-02   15 -4.4676262E-09   16  3.5120039E-02
   17  2.8192072E-02   18 -3.3969690E-09   19  4.4040646E-02   20 -4.4335364E-02
   21  1.2841658E-08   22 -5.1880959E-02   23  5.2825212E-02   24  4.8694232E-09
   25  1.2471292E-02   26 -6.4515697E-02   27  5.3950571E-09   28  2.7008484E-02
   29  1.5552148E-02   30  1.0175784E-08   31  4.5361720E-02   32  2.5988107E-02
   33  4.8502953E-09   34  1.1768877E-02   35  6.7305279E-03   36 -6.1515697E-10
   37  6.6051164E-02   38  3.8212525E-02   39 -2.6348397E-09   40  4.5430988E-02
   41 -7.8386686E-02   42  2.3303352E-09
 TTTTTTTTTTTTTTTTTTTTTTTTTTTTTT TOTGRA      TELAPSE       30.99 TCPU       29.27
 INFORMATION **** opta001 **** GEOMETRY OUTPUT FILE
 CLASSICAL MODEL (SCHLEGEL) USED AS INITIAL HESSIAN MATRIX
 REFERENCE GEOMETRY DEFINED

 MAX GRADIENT      0.078387  THRESHOLD              0.000450 CONVERGED NO
 RMS GRADIENT      0.034295  THRESHOLD              0.000300 CONVERGED NO

 GRADIENT NORM     0.222260  GRADIENT THRESHOLD     0.500000

 EIGENVALUES OF THE ESTIMATED HESSIAN
  0.6628E-03  0.1336E-02  0.3739E-02  0.4123E-02  0.9050E-02  0.1176E-01
  0.1358E-01  0.1867E-01  0.3432E-01  0.3755E-01  0.4070E-01  0.4968E-01
  0.6035E-01  0.6872E-01  0.7579E-01  0.8258E-01  0.1146      0.1233    
  0.1358      0.1364      0.1706      0.1932      0.2185      0.2831    
  0.3574      0.4258      0.4493      0.5498      0.6319      0.6751    
  0.6890      0.7285      0.9125      0.9848       1.019       1.071    
   1.140       1.149       1.192       1.211       1.409       1.441    

 INITIAL TRUST RADIUS    0.5000000000E+00

 PREDICTED ENERGY CHANGE    -0.354E-01

 INITIAL DISPLACEMENTS
  0.171489  0.089650  0.000000 -0.005840  0.048369 -0.000001  0.044547 -0.008889
 -0.000001 -0.068697 -0.039670  0.000002 -0.102827  0.056104 -0.000003  0.040652
  0.046204 -0.000002  0.022307 -0.083504  0.000002 -0.033172  0.156540 -0.000000
  0.136196 -0.090370 -0.000000  0.026802 -0.000663  0.000008  0.003250  0.033150
  0.000001  0.068213  0.054682 -0.000000  0.079797  0.029840  0.000002  0.034337
 -0.120311 -0.000002
 TTTTTTTTTTTTTTTTTTTTTTTTTTTTTT OPTI        TELAPSE       31.00 TCPU       29.28

 OPTOPTOPTOPTOPTOPTOPTOPTOPTOPTOPTOPTOPTOPTOPTOPTOPTOPTOPTOPTOPTOPTOPTOPTOPTOPT

 - INFORMATION ON SCF MOVED TO SCFOUT.LOG
 GEOMETRY OPTIMIZATION INFORMATION STORED IN OPTINFO.DAT

 OPTOPTOPTOPTOPTOPTOPTOPTOPTOPTOPTOPTOPTOPTOPTOPTOPTOPTOPTOPTOPTOPTOPTOPTOPTOPT
 *******************************************************************************
 COORDINATE OPTIMIZATION - POINT    2
 *******************************************************************************
 LATTICE PARAMETERS (ANGSTROMS AND DEGREES) - BOHR = 0.5291772083 ANGSTROM
 PRIMITIVE CELL - CENTRING CODE 1/0 VOLUME=   412.228566 - DENSITY  0.725 g/cm^3
         A              B              C           ALPHA      BETA       GAMMA 
     7.40317242     7.40317242     8.68503800    90.000000  90.000000 120.000000
 *******************************************************************************
 ATOMS IN THE ASYMMETRIC UNIT   15 - ATOMS IN THE UNIT CELL:   15
     ATOM                 X/A                 Y/B                 Z/C    
 *******************************************************************************
      1 T   6 C     1.265277279108E-01  2.293708110746E-01  3.000000076162E-01
      2 T   6 C     4.448645527436E-01  2.255586827113E-01  2.999999570487E-01
      3 T   6 C     4.459330300699E-01 -4.459559098300E-01  2.999999576101E-01
      4 T   6 C     4.367318293869E-01 -1.149937674940E-01  3.000001195359E-01
      5 T   6 C    -2.278965165697E-01  2.261746008695E-01  2.999998125817E-01
      6 T   6 C    -2.180504333513E-01 -4.417309197951E-01  2.999998870476E-01
      7 T   6 C    -2.248690910685E-01 -1.189154581757E-01  3.000001206202E-01
      8 T   6 C     2.253642679177E-01  1.227029973314E-01  3.000000014589E-01
      9 T   6 C     2.265531433194E-01  4.353181538163E-01  3.000000104296E-01
     10 T   6 C     2.217900890933E-01 -2.233418771481E-01  3.000004418364E-01
     11 T   6 C    -4.455138462919E-01  1.124986906300E-01  2.999999659902E-01
     12 T   6 C    -4.411262215976E-01  4.466815751366E-01  2.999999161750E-01
     13 T   6 C    -4.436993905135E-01 -2.231855975403E-01  3.000000422748E-01
     14 T   6 C    -1.206354639365E-01  4.334428780032E-01  2.999997889352E-01
     15 T   6 C    -1.170847882228E-01 -2.191804151445E-01  2.999999708395E-01

 T = ATOM BELONGING TO THE ASYMMETRIC UNIT

 TOTAL ENERGY(DFT)(AU)( 26) -5.7047940822629E+02     DE (AU)   -4.444E-02

 UPDATED TRUST RADIUS     0.100E+01

 SYMMETRY ALLOWED FORCES  (COORDINATE, FORCE)

    1 -9.0454384E-03    2  1.1814994E-03    3  1.1804852E-07    4  6.1302834E-03
    5 -1.6870275E-02    6 -3.5737700E-08    7 -1.3658958E-02    8  1.1753958E-02
    9  3.0798773E-08   10 -2.4402027E-02   11 -1.3093020E-02   12 -8.8695554E-08
   13 -4.1005130E-03   14  2.0718042E-02   15  6.0765271E-08   16  2.9814924E-02
   17  1.7203639E-02   18 -5.9524823E-08   19  1.1947146E-02   20 -8.9744406E-03
   21 -9.3595606E-08   22  1.4057397E-02   23  7.6228475E-03   24  2.8330597E-09
   25  1.2626954E-02   26  6.7524658E-03   27 -5.3756744E-08   28  1.7537356E-02
   29  9.8952022E-03   30  6.4652273E-08   31  2.2276152E-02   32  9.7072053E-04
   33 -4.8862015E-08   34  1.7962141E-02   35  4.8635747E-03   36 -3.7011649E-08
   37  2.8070692E-02   38  2.4071807E-02   39  1.9321209E-08   40  3.8308075E-03
   41 -3.2128459E-03   42  2.7781198E-08

 GRADIENT NORM     0.080333  GRADIENT THRESHOLD     0.500000

 EIGENVALUES OF THE ESTIMATED HESSIAN
  0.6628E-03  0.1336E-02  0.3739E-02  0.4123E-02  0.9050E-02  0.1176E-01
  0.1358E-01  0.1867E-01  0.3424E-01  0.3755E-01  0.4070E-01  0.4968E-01
  0.6030E-01  0.6872E-01  0.7579E-01  0.8269E-01  0.1124      0.1209    
  0.1358      0.1361      0.1679      0.1933      0.2179      0.2813    
  0.3572      0.4467      0.4579      0.5395      0.6247      0.6340    
  0.6773      0.7269      0.8270      0.9843       1.068       1.096    
   1.140       1.149       1.159       1.210       1.409       1.439    

 PREDICTED ENERGY CHANGE    -0.663E-02

 MAX GRADIENT      0.029815  THRESHOLD              0.000450 CONVERGED NO
 RMS GRADIENT      0.012396  THRESHOLD              0.000300 CONVERGED NO
 MAX DISPLAC.      0.084490  THRESHOLD              0.001800 CONVERGED NO
 RMS DISPLAC.      0.034736  THRESHOLD              0.001200 CONVERGED NO
 TTTTTTTTTTTTTTTTTTTTTTTTTTTTTT OPTI        TELAPSE       74.01 TCPU       72.10
 *******************************************************************************
 COORDINATE OPTIMIZATION - POINT    3
 *******************************************************************************
 LATTICE PARAMETERS (ANGSTROMS AND DEGREES) - BOHR = 0.5291772083 ANGSTROM
 PRIMITIVE CELL - CENTRING CODE 1/0 VOLUME=   412.228566 - DENSITY  0.725 g/cm^3
         A              B              C           ALPHA      BETA       GAMMA 
     7.40317242     7.40317242     8.68503800    90.000000  90.000000 120.000000
 *******************************************************************************
 ATOMS IN THE ASYMMETRIC UNIT   15 - ATOMS IN THE UNIT CELL:   15
     ATOM                 X/A                 Y/B                 Z/C    
 *******************************************************************************
      1 T   6 C     1.318681378978E-01  2.343751137979E-01  2.999999676859E-01
      2 T   6 C     4.463368760645E-01  2.233047960451E-01  2.999997353987E-01
      3 T   6 C     4.482844217359E-01 -4.421693133223E-01  2.999996545747E-01
      4 T   6 C     4.336783205250E-01 -1.172699743149E-01  3.000004067902E-01
      5 T   6 C    -2.288284175916E-01  2.289957197624E-01  3.000006896007E-01
      6 T   6 C    -2.175744582259E-01 -4.415223998105E-01  2.999994036062E-01
      7 T   6 C    -2.258893588360E-01 -1.224012605431E-01  2.999984306082E-01
      8 T   6 C     2.286947887527E-01  1.258556437613E-01  2.999998038835E-01
      9 T   6 C     2.316971384374E-01  4.383631841636E-01  2.999999235771E-01
     10 T   6 C     2.235799534368E-01 -2.247841938245E-01  3.000033391821E-01
     11 T   6 C    -4.447625191478E-01  1.102849359501E-01  3.000000010935E-01
     12 T   6 C    -4.399785669259E-01  4.467424097733E-01  2.999994445336E-01
     13 T   6 C    -4.419751308071E-01 -2.205364599397E-01  2.999994828469E-01
     14 T   6 C    -1.306295205405E-01  4.285804351858E-01  3.000004710370E-01
     15 T   6 C    -1.256127758857E-01 -2.233741922391E-01  2.999992455817E-01

 T = ATOM BELONGING TO THE ASYMMETRIC UNIT

 TOTAL ENERGY(DFT)(AU)( 16) -5.7048689560108E+02     DE (AU)   -7.487E-03

 UPDATED TRUST RADIUS     0.200E+01

 SYMMETRY ALLOWED FORCES  (COORDINATE, FORCE)

    1 -1.2970001E-02    2 -1.3147362E-02    3  2.6248367E-07    4 -3.0961608E-03
    5  2.3575896E-03    6 -3.1884886E-07    7  3.9527961E-03    8 -3.5330414E-03
    9 -5.4002575E-07   10  8.1377718E-03   11  6.7732320E-03   12 -2.4273355E-07
   13  4.8588076E-03   14 -8.7465410E-03   15 -3.4380198E-07   16  2.1391955E-02
   17  9.8943995E-03   18  4.1392984E-07   19  2.3345750E-03   20  5.7538678E-03
   21  7.0463766E-07   22  1.8926948E-02   23  1.3641439E-03   24  6.2717779E-07
   25  8.4646551E-03   26  1.8052889E-02   27  6.5505603E-07   28 -2.8831942E-04
   29 -3.2823436E-03   30 -2.2568733E-07   31  8.0406426E-03   32 -6.3047049E-03
   33  7.6577061E-07   34  7.7553489E-04   35 -2.7198233E-03   36  2.4741922E-07
   37  3.9410324E-03   38  5.9066784E-03   39  2.4202665E-07   40 -3.8940560E-03
   41  1.7865635E-02   42  3.6511799E-08

 GRADIENT NORM     0.049561  GRADIENT THRESHOLD     0.500000

 EIGENVALUES OF THE ESTIMATED HESSIAN
  0.6628E-03  0.1336E-02  0.3739E-02  0.4123E-02  0.9050E-02  0.1176E-01
  0.1358E-01  0.1867E-01  0.3354E-01  0.3755E-01  0.4070E-01  0.4968E-01
  0.6014E-01  0.6872E-01  0.7579E-01  0.8172E-01  0.1124      0.1177    
  0.1356      0.1358      0.1689      0.1933      0.2200      0.2702    
  0.3535      0.4038      0.4479      0.5505      0.6322      0.6680    
  0.6826      0.7307      0.8073      0.9900       1.063       1.097    
   1.147       1.148       1.177       1.226       1.409       1.491    

 PREDICTED ENERGY CHANGE    -0.160E-02

 MAX GRADIENT      0.021392  THRESHOLD              0.000450 CONVERGED NO
 RMS GRADIENT      0.007647  THRESHOLD              0.000300 CONVERGED NO
 MAX DISPLAC.      0.051329  THRESHOLD              0.001800 CONVERGED NO
 RMS DISPLAC.      0.017525  THRESHOLD              0.001200 CONVERGED NO
 TTTTTTTTTTTTTTTTTTTTTTTTTTTTTT OPTI        TELAPSE      102.09 TCPU      100.03
 *******************************************************************************
 COORDINATE OPTIMIZATION - POINT    4
 *******************************************************************************
 LATTICE PARAMETERS (ANGSTROMS AND DEGREES) - BOHR = 0.5291772083 ANGSTROM
 PRIMITIVE CELL - CENTRING CODE 1/0 VOLUME=   412.228566 - DENSITY  0.725 g/cm^3
         A              B              C           ALPHA      BETA       GAMMA 
     7.40317242     7.40317242     8.68503800    90.000000  90.000000 120.000000
 *******************************************************************************
 ATOMS IN THE ASYMMETRIC UNIT   15 - ATOMS IN THE UNIT CELL:   15
     ATOM                 X/A                 Y/B                 Z/C    
 *******************************************************************************
      1 T   6 C     1.313751106961E-01  2.351209649588E-01  3.000092291121E-01
      2 T   6 C     4.472013841077E-01  2.235940192210E-01  3.000028816208E-01
      3 T   6 C     4.504123338298E-01 -4.405297635826E-01  3.000026028144E-01
      4 T   6 C     4.325851436224E-01 -1.183367359982E-01  2.999933733526E-01
      5 T   6 C    -2.294110489307E-01  2.279062924125E-01  2.999904781727E-01
      6 T   6 C    -2.158540460348E-01 -4.405076554466E-01  2.999992608730E-01
      7 T   6 C    -2.254848778568E-01 -1.215618705948E-01  3.000105187465E-01
      8 T   6 C     2.307923751846E-01  1.275196864764E-01  3.000078723988E-01
      9 T   6 C     2.346869013912E-01  4.417088401957E-01  3.000090966859E-01
     10 T   6 C     2.210304386914E-01 -2.298622861617E-01  2.999802870614E-01
     11 T   6 C    -4.453827365965E-01  1.084314170586E-01  2.999973632680E-01
     12 T   6 C    -4.393615674115E-01  4.471075935152E-01  3.000017262985E-01
     13 T   6 C    -4.409638221939E-01 -2.186593893161E-01  3.000014458030E-01
     14 T   6 C    -1.337583934812E-01  4.279456854135E-01  2.999893658229E-01
     15 T   6 C    -1.289783061281E-01 -2.254323537065E-01  3.000044979692E-01

 T = ATOM BELONGING TO THE ASYMMETRIC UNIT

 TOTAL ENERGY(DFT)(AU)( 14) -5.7048867916428E+02     DE (AU)   -1.784E-03

 UPDATED TRUST RADIUS     0.400E+01

 SYMMETRY ALLOWED FORCES  (COORDINATE, FORCE)

    1 -2.3475147E-03    2 -3.5813963E-03    3 -4.4202948E-07    4  3.7124556E-05
    5  3.5193244E-03    6 -3.5184515E-08    7  6.5610870E-03    8 -4.2239564E-03
    9  5.2358273E-06   10  5.2283355E-03   11  3.6648489E-03   12  2.8416243E-06
   13  6.2793712E-03   14 -6.5213371E-04   15  1.8161246E-06   16  8.2646560E-03
   17  3.0576058E-03   18 -1.7384527E-06   19  1.5397837E-03   20  7.0408984E-03
   21 -4.3776988E-06   22 -8.7266635E-05   23  7.2124790E-03   24 -2.3784612E-06
   25 -1.3624498E-03   26  2.0214343E-03   27 -7.0858409E-06   28  3.6427939E-03
   29  8.3008591E-04   30  5.9393492E-06   31 -4.1079856E-04   32 -1.2570602E-03
   33 -5.4943122E-06   34 -3.2117615E-03   35 -6.2295165E-04   36  9.8230386E-07
   37 -4.2665902E-03   38  8.9458491E-04   39  1.3413880E-06   40 -2.1210999E-04
   41  2.4549258E-03   42  2.6198423E-06

 GRADIENT NORM     0.020280  GRADIENT THRESHOLD     0.500000

 EIGENVALUES OF THE ESTIMATED HESSIAN
  0.6628E-03  0.1336E-02  0.3739E-02  0.4123E-02  0.9050E-02  0.1176E-01
  0.1358E-01  0.1867E-01  0.3130E-01  0.3755E-01  0.4070E-01  0.4968E-01
  0.6019E-01  0.6872E-01  0.7579E-01  0.8522E-01  0.1130      0.1232    
  0.1348      0.1358      0.1694      0.1920      0.2177      0.2589    
  0.3394      0.4422      0.4503      0.5540      0.6302      0.6705    
  0.6795      0.7297      0.7895      0.9835      0.9927       1.099    
   1.141       1.148       1.167       1.223       1.409       1.444    

 PREDICTED ENERGY CHANGE    -0.493E-03

 MAX GRADIENT      0.008265  THRESHOLD              0.000450 CONVERGED NO
 RMS GRADIENT      0.003129  THRESHOLD              0.000300 CONVERGED NO
 MAX DISPLAC.      0.039047  THRESHOLD              0.001800 CONVERGED NO
 RMS DISPLAC.      0.013761  THRESHOLD              0.001200 CONVERGED NO
 TTTTTTTTTTTTTTTTTTTTTTTTTTTTTT OPTI        TELAPSE      127.37 TCPU      125.13
 *******************************************************************************
 COORDINATE OPTIMIZATION - POINT    5
 *******************************************************************************
 LATTICE PARAMETERS (ANGSTROMS AND DEGREES) - BOHR = 0.5291772083 ANGSTROM
 PRIMITIVE CELL - CENTRING CODE 1/0 VOLUME=   412.228566 - DENSITY  0.725 g/cm^3
         A              B              C           ALPHA      BETA       GAMMA 
     7.40317242     7.40317242     8.68503800    90.000000  90.000000 120.000000
 *******************************************************************************
 ATOMS IN THE ASYMMETRIC UNIT   15 - ATOMS IN THE UNIT CELL:   15
     ATOM                 X/A                 Y/B                 Z/C    
 *******************************************************************************
      1 T   6 C     1.288465543995E-01  2.354567275434E-01  2.999302926494E-01
      2 T   6 C     4.473413988609E-01  2.245276025957E-01  2.999638233971E-01
      3 T   6 C     4.508103643546E-01 -4.407312091015E-01  2.999952091525E-01
      4 T   6 C     4.330921856420E-01 -1.185764626413E-01  3.001630456889E-01
      5 T   6 C    -2.288300343734E-01  2.267128097168E-01  2.999440427366E-01
      6 T   6 C    -2.141804073953E-01 -4.401560520565E-01  2.999174540837E-01
      7 T   6 C    -2.249610561343E-01 -1.200197650315E-01  2.999136266209E-01
      8 T   6 C     2.307964769787E-01  1.300459212765E-01  2.999334643076E-01
      9 T   6 C     2.340718349961E-01  4.427878906148E-01  2.999331586420E-01
     10 T   6 C     2.213894476731E-01 -2.334431154480E-01  3.004905034652E-01
     11 T   6 C    -4.458821537849E-01  1.076732498342E-01  3.000067736260E-01
     12 T   6 C    -4.392284627138E-01  4.471456169660E-01  2.999591937668E-01
     13 T   6 C    -4.407817284085E-01 -2.181986826285E-01  3.000310866162E-01
     14 T   6 C    -1.338609168226E-01  4.269877038941E-01  2.999120190407E-01
     15 T   6 C    -1.297346143824E-01 -2.257677910888E-01  2.999063062064E-01

 T = ATOM BELONGING TO THE ASYMMETRIC UNIT

 TOTAL ENERGY(DFT)(AU)( 12) -5.7048931870482E+02     DE (AU)   -6.395E-04

 UPDATED TRUST RADIUS     0.400E+01

 SYMMETRY ALLOWED FORCES  (COORDINATE, FORCE)

    1  3.0157884E-03    2 -2.9825303E-03    3  2.0976028E-05    4  1.5038478E-03
    5 -3.8313000E-03    6 -2.2089060E-05    7  2.8830080E-03    8 -2.6775406E-03
    9 -6.6401038E-05   10  1.3919075E-03   11  1.3755585E-03   12 -7.2298659E-05
   13  6.3302052E-04   14 -5.9590116E-04   15 -8.6645831E-06   16  3.1619190E-04
   17 -1.0745972E-03   18 -2.8214490E-05   19  3.2271615E-03   20 -4.5836613E-04
   21  3.3416050E-05   22 -4.2927621E-03   23  7.4419666E-03   24  7.6002982E-05
   25  2.2597543E-05   26  3.5309310E-03   27  1.5489919E-04   28  2.0049533E-03
   29 -6.1351152E-04   30 -9.3906882E-05   31 -2.3404842E-03   32  2.0396093E-03
   33  5.0853569E-05   34 -1.4288399E-03   35  2.3589930E-03   36 -3.0846246E-05
   37  2.7555329E-04   38 -3.3589054E-03   39 -1.6714448E-05   40 -6.3977569E-05
   41 -7.2768373E-04   42  2.7445993E-06

 GRADIENT NORM     0.013665  GRADIENT THRESHOLD     0.500000

 EIGENVALUES OF THE ESTIMATED HESSIAN
  0.6641E-03  0.1337E-02  0.3739E-02  0.4123E-02  0.9048E-02  0.1176E-01
  0.1358E-01  0.1867E-01  0.1926E-01  0.3756E-01  0.4070E-01  0.4968E-01
  0.5999E-01  0.6872E-01  0.7579E-01  0.8038E-01  0.1095      0.1250    
  0.1357      0.1365      0.1834      0.2041      0.2183      0.2605    
  0.3338      0.4302      0.4483      0.5482      0.6184      0.6607    
  0.6888      0.7346      0.7840      0.9394       1.037       1.095    
   1.148       1.166       1.197       1.285       1.377       1.541    

 PREDICTED ENERGY CHANGE    -0.501E-03

 MAX GRADIENT      0.007442  THRESHOLD              0.000450 CONVERGED NO
 RMS GRADIENT      0.002109  THRESHOLD              0.000300 CONVERGED NO
 MAX DISPLAC.      0.177038  THRESHOLD              0.001800 CONVERGED NO
 RMS DISPLAC.      0.044430  THRESHOLD              0.001200 CONVERGED NO
 TTTTTTTTTTTTTTTTTTTTTTTTTTTTTT OPTI        TELAPSE      149.99 TCPU      147.59
 *******************************************************************************
 COORDINATE OPTIMIZATION - POINT    6
 *******************************************************************************
 LATTICE PARAMETERS (ANGSTROMS AND DEGREES) - BOHR = 0.5291772083 ANGSTROM
[...]
MPICH ERROR [Rank 40] [job id 2541589.20] [Tue Nov  1 00:28:09 2022] [nid005741] - Abort(1) (rank 40 in comm 0): application called MPI_Abort(MPI_COMM_WORLD, 1) - process 40

aborting job:
application called MPI_Abort(MPI_COMM_WORLD, 1) - process 40
MPICH ERROR [Rank 3] [job id 2541589.20] [Tue Nov  1 00:28:09 2022] [nid005741] - Abort(1) (rank 3 in comm 0): application called MPI_Abort(MPI_COMM_WORLD, 1) - process 3

aborting job:
application called MPI_Abort(MPI_COMM_WORLD, 1) - process 3
MPICH ERROR [Rank 112] [job id 2541589.20] [Tue Nov  1 00:28:09 2022] [nid005741] - Abort(1) (rank 112 in comm 0): application called MPI_Abort(MPI_COMM_WORLD, 1) - process 112

aborting job:
application called MPI_Abort(MPI_COMM_WORLD, 1) - process 112
MPICH ERROR [Rank 108] [job id 2541589.20] [Tue Nov  1 00:28:09 2022] [nid005741] - Abort(1) (rank 108 in comm 0): application called MPI_Abort(MPI_COMM_WORLD, 1) - process 108

aborting job:
application called MPI_Abort(MPI_COMM_WORLD, 1) - process 108
MPICH ERROR [Rank 107] [job id 2541589.20] [Tue Nov  1 00:28:09 2022] [nid005741] - Abort(1) (rank 107 in comm 0): application called MPI_Abort(MPI_COMM_WORLD, 1) - process 107

aborting job:
application called MPI_Abort(MPI_COMM_WORLD, 1) - process 107
MPICH ERROR [Rank 89] [job id 2541589.20] [Tue Nov  1 00:28:09 2022] [nid005741] - Abort(1) (rank 89 in comm 0): application called MPI_Abort(MPI_COMM_WORLD, 1) - process 89

aborting job:
application called MPI_Abort(MPI_COMM_WORLD, 1) - process 89
MPICH ERROR [Rank 13] [job id 2541589.20] [Tue Nov  1 00:28:09 2022] [nid005741] - Abort(1) (rank 13 in comm 0): application called MPI_Abort(MPI_COMM_WORLD, 1) - process 13

aborting job:
application called MPI_Abort(MPI_COMM_WORLD, 1) - process 13
MPICH ERROR [Rank 14] [job id 2541589.20] [Tue Nov  1 00:28:09 2022] [nid005741] - Abort(1) (rank 14 in comm 0): application called MPI_Abort(MPI_COMM_WORLD, 1) - process 14

aborting job:
application called MPI_Abort(MPI_COMM_WORLD, 1) - process 14
MPICH ERROR [Rank 83] [job id 2541589.20] [Tue Nov  1 00:28:09 2022] [nid005741] - Abort(1) (rank 83 in comm 0): application called MPI_Abort(MPI_COMM_WORLD, 1) - process 83

aborting job:
application called MPI_Abort(MPI_COMM_WORLD, 1) - process 83
MPICH ERROR [Rank 22] [job id 2541589.20] [Tue Nov  1 00:28:09 2022] [nid005741] - Abort(1) (rank 22 in comm 0): application called MPI_Abort(MPI_COMM_WORLD, 1) - process 22

aborting job:
application called MPI_Abort(MPI_COMM_WORLD, 1) - process 22
MPICH ERROR [Rank 18] [job id 2541589.20] [Tue Nov  1 00:28:09 2022] [nid005741] - Abort(1) (rank 18 in comm 0): application called MPI_Abort(MPI_COMM_WORLD, 1) - process 18

aborting job:
application called MPI_Abort(MPI_COMM_WORLD, 1) - process 18
MPICH ERROR [Rank 23] [job id 2541589.20] [Tue Nov  1 00:28:09 2022] [nid005741] - Abort(1) (rank 23 in comm 0): application called MPI_Abort(MPI_COMM_WORLD, 1) - process 23

aborting job:
application called MPI_Abort(MPI_COMM_WORLD, 1) - process 23
MPICH ERROR [Rank 35] [job id 2541589.20] [Tue Nov  1 00:28:09 2022] [nid005741] - Abort(1) (rank 35 in comm 0): application called MPI_Abort(MPI_COMM_WORLD, 1) - process 35

aborting job:
application called MPI_Abort(MPI_COMM_WORLD, 1) - process 35
MPICH ERROR [Rank 57] [job id 2541589.20] [Tue Nov  1 00:28:09 2022] [nid005741] - Abort(1) (rank 57 in comm 0): application called MPI_Abort(MPI_COMM_WORLD, 1) - process 57

aborting job:
application called MPI_Abort(MPI_COMM_WORLD, 1) - process 57
MPICH ERROR [Rank 72] [job id 2541589.20] [Tue Nov  1 00:28:09 2022] [nid005741] - Abort(1) (rank 72 in comm 0): application called MPI_Abort(MPI_COMM_WORLD, 1) - process 72

aborting job:
application called MPI_Abort(MPI_COMM_WORLD, 1) - process 72
MPICH ERROR [Rank 122] [job id 2541589.20] [Tue Nov  1 00:28:09 2022] [nid005741] - Abort(1) (rank 122 in comm 0): application called MPI_Abort(MPI_COMM_WORLD, 1) - process 122

aborting job:
application called MPI_Abort(MPI_COMM_WORLD, 1) - process 122
MPICH ERROR [Rank 123] [job id 2541589.20] [Tue Nov  1 00:28:09 2022] [nid005741] - Abort(1) (rank 123 in comm 0): application called MPI_Abort(MPI_COMM_WORLD, 1) - process 123

aborting job:
application called MPI_Abort(MPI_COMM_WORLD, 1) - process 123
MPICH ERROR [Rank 103] [job id 2541589.20] [Tue Nov  1 00:28:09 2022] [nid005741] - Abort(1) (rank 103 in comm 0): application called MPI_Abort(MPI_COMM_WORLD, 1) - process 103

aborting job:
application called MPI_Abort(MPI_COMM_WORLD, 1) - process 103
MPICH ERROR [Rank 127] [job id 2541589.20] [Tue Nov  1 00:28:09 2022] [nid005741] - Abort(1) (rank 127 in comm 0): application called MPI_Abort(MPI_COMM_WORLD, 1) - process 127

aborting job:
application called MPI_Abort(MPI_COMM_WORLD, 1) - process 127
MPICH ERROR [Rank 29] [job id 2541589.20] [Tue Nov  1 00:28:09 2022] [nid005741] - Abort(1) (rank 29 in comm 0): application called MPI_Abort(MPI_COMM_WORLD, 1) - process 29

aborting job:
application called MPI_Abort(MPI_COMM_WORLD, 1) - process 29
MPICH ERROR [Rank 37] [job id 2541589.20] [Tue Nov  1 00:28:09 2022] [nid005741] - Abort(1) (rank 37 in comm 0): application called MPI_Abort(MPI_COMM_WORLD, 1) - process 37

aborting job:
application called MPI_Abort(MPI_COMM_WORLD, 1) - process 37
MPICH ERROR [Rank 47] [job id 2541589.20] [Tue Nov  1 00:28:09 2022] [nid005741] - Abort(1) (rank 47 in comm 0): application called MPI_Abort(MPI_COMM_WORLD, 1) - process 47

aborting job:
application called MPI_Abort(MPI_COMM_WORLD, 1) - process 47
MPICH ERROR [Rank 56] [job id 2541589.20] [Tue Nov  1 00:28:09 2022] [nid005741] - Abort(1) (rank 56 in comm 0): application called MPI_Abort(MPI_COMM_WORLD, 1) - process 56

aborting job:
application called MPI_Abort(MPI_COMM_WORLD, 1) - process 56
MPICH ERROR [Rank 104] [job id 2541589.20] [Tue Nov  1 00:28:09 2022] [nid005741] - Abort(1) (rank 104 in comm 0): application called MPI_Abort(MPI_COMM_WORLD, 1) - process 104

aborting job:
application called MPI_Abort(MPI_COMM_WORLD, 1) - process 104
MPICH ERROR [Rank 106] [job id 2541589.20] [Tue Nov  1 00:28:09 2022] [nid005741] - Abort(1) (rank 106 in comm 0): application called MPI_Abort(MPI_COMM_WORLD, 1) - process 106

aborting job:
application called MPI_Abort(MPI_COMM_WORLD, 1) - process 106
MPICH ERROR [Rank 114] [job id 2541589.20] [Tue Nov  1 00:28:09 2022] [nid005741] - Abort(1) (rank 114 in comm 0): application called MPI_Abort(MPI_COMM_WORLD, 1) - process 114

aborting job:
application called MPI_Abort(MPI_COMM_WORLD, 1) - process 114
MPICH ERROR [Rank 4] [job id 2541589.20] [Tue Nov  1 00:28:09 2022] [nid005741] - Abort(1) (rank 4 in comm 0): application called MPI_Abort(MPI_COMM_WORLD, 1) - process 4

aborting job:
application called MPI_Abort(MPI_COMM_WORLD, 1) - process 4
MPICH ERROR [Rank 95] [job id 2541589.20] [Tue Nov  1 00:28:09 2022] [nid005741] - Abort(1) (rank 95 in comm 0): application called MPI_Abort(MPI_COMM_WORLD, 1) - process 95

aborting job:
application called MPI_Abort(MPI_COMM_WORLD, 1) - process 95
MPICH ERROR [Rank 79] [job id 2541589.20] [Tue Nov  1 00:28:09 2022] [nid005741] - Abort(1) (rank 79 in comm 0): application called MPI_Abort(MPI_COMM_WORLD, 1) - process 79

aborting job:
application called MPI_Abort(MPI_COMM_WORLD, 1) - process 79
MPICH ERROR [Rank 11] [job id 2541589.20] [Tue Nov  1 00:28:09 2022] [nid005741] - Abort(1) (rank 11 in comm 0): application called MPI_Abort(MPI_COMM_WORLD, 1) - process 11

aborting job:
application called MPI_Abort(MPI_COMM_WORLD, 1) - process 11
MPICH ERROR [Rank 87] [job id 2541589.20] [Tue Nov  1 00:28:09 2022] [nid005741] - Abort(1) (rank 87 in comm 0): application called MPI_Abort(MPI_COMM_WORLD, 1) - process 87

aborting job:
application called MPI_Abort(MPI_COMM_WORLD, 1) - process 87
MPICH ERROR [Rank 118] [job id 2541589.20] [Tue Nov  1 00:28:09 2022] [nid005741] - Abort(1) (rank 118 in comm 0): application called MPI_Abort(MPI_COMM_WORLD, 1) - process 118

aborting job:
application called MPI_Abort(MPI_COMM_WORLD, 1) - process 118
MPICH ERROR [Rank 73] [job id 2541589.20] [Tue Nov  1 00:28:09 2022] [nid005741] - Abort(1) (rank 73 in comm 0): application called MPI_Abort(MPI_COMM_WORLD, 1) - process 73

aborting job:
application called MPI_Abort(MPI_COMM_WORLD, 1) - process 73
MPICH ERROR [Rank 30] [job id 2541589.20] [Tue Nov  1 00:28:09 2022] [nid005741] - Abort(1) (rank 30 in comm 0): application called MPI_Abort(MPI_COMM_WORLD, 1) - process 30

aborting job:
application called MPI_Abort(MPI_COMM_WORLD, 1) - process 30
MPICH ERROR [Rank 55] [job id 2541589.20] [Tue Nov  1 00:28:09 2022] [nid005741] - Abort(1) (rank 55 in comm 0): application called MPI_Abort(MPI_COMM_WORLD, 1) - process 55

aborting job:
application called MPI_Abort(MPI_COMM_WORLD, 1) - process 55
MPICH ERROR [Rank 59] [job id 2541589.20] [Tue Nov  1 00:28:09 2022] [nid005741] - Abort(1) (rank 59 in comm 0): application called MPI_Abort(MPI_COMM_WORLD, 1) - process 59

aborting job:
application called MPI_Abort(MPI_COMM_WORLD, 1) - process 59
MPICH ERROR [Rank 69] [job id 2541589.20] [Tue Nov  1 00:28:09 2022] [nid005741] - Abort(1) (rank 69 in comm 0): application called MPI_Abort(MPI_COMM_WORLD, 1) - process 69

aborting job:
application called MPI_Abort(MPI_COMM_WORLD, 1) - process 69
MPICH ERROR [Rank 5] [job id 2541589.20] [Tue Nov  1 00:28:09 2022] [nid005741] - Abort(1) (rank 5 in comm 0): application called MPI_Abort(MPI_COMM_WORLD, 1) - process 5

aborting job:
application called MPI_Abort(MPI_COMM_WORLD, 1) - process 5
MPICH ERROR [Rank 20] [job id 2541589.20] [Tue Nov  1 00:28:09 2022] [nid005741] - Abort(1) (rank 20 in comm 0): application called MPI_Abort(MPI_COMM_WORLD, 1) - process 20

aborting job:
application called MPI_Abort(MPI_COMM_WORLD, 1) - process 20
MPICH ERROR [Rank 28] [job id 2541589.20] [Tue Nov  1 00:28:09 2022] [nid005741] - Abort(1) (rank 28 in comm 0): application called MPI_Abort(MPI_COMM_WORLD, 1) - process 28

aborting job:
application called MPI_Abort(MPI_COMM_WORLD, 1) - process 28
MPICH ERROR [Rank 39] [job id 2541589.20] [Tue Nov  1 00:28:09 2022] [nid005741] - Abort(1) (rank 39 in comm 0): application called MPI_Abort(MPI_COMM_WORLD, 1) - process 39

aborting job:
application called MPI_Abort(MPI_COMM_WORLD, 1) - process 39
MPICH ERROR [Rank 54] [job id 2541589.20] [Tue Nov  1 00:28:09 2022] [nid005741] - Abort(1) (rank 54 in comm 0): application called MPI_Abort(MPI_COMM_WORLD, 1) - process 54

aborting job:
application called MPI_Abort(MPI_COMM_WORLD, 1) - process 54
MPICH ERROR [Rank 61] [job id 2541589.20] [Tue Nov  1 00:28:09 2022] [nid005741] - Abort(1) (rank 61 in comm 0): application called MPI_Abort(MPI_COMM_WORLD, 1) - process 61

aborting job:
application called MPI_Abort(MPI_COMM_WORLD, 1) - process 61
MPICH ERROR [Rank 15] [job id 2541589.20] [Tue Nov  1 00:28:09 2022] [nid005741] - Abort(1) (rank 15 in comm 0): application called MPI_Abort(MPI_COMM_WORLD, 1) - process 15

aborting job:
application called MPI_Abort(MPI_COMM_WORLD, 1) - process 15
MPICH ERROR [Rank 94] [job id 2541589.20] [Tue Nov  1 00:28:09 2022] [nid005741] - Abort(1) (rank 94 in comm 0): application called MPI_Abort(MPI_COMM_WORLD, 1) - process 94

aborting job:
application called MPI_Abort(MPI_COMM_WORLD, 1) - process 94
MPICH ERROR [Rank 100] [job id 2541589.20] [Tue Nov  1 00:28:09 2022] [nid005741] - Abort(1) (rank 100 in comm 0): application called MPI_Abort(MPI_COMM_WORLD, 1) - process 100

aborting job:
application called MPI_Abort(MPI_COMM_WORLD, 1) - process 100
MPICH ERROR [Rank 120] [job id 2541589.20] [Tue Nov  1 00:28:09 2022] [nid005741] - Abort(1) (rank 120 in comm 0): application called MPI_Abort(MPI_COMM_WORLD, 1) - process 120

aborting job:
application called MPI_Abort(MPI_COMM_WORLD, 1) - process 120
MPICH ERROR [Rank 33] [job id 2541589.20] [Tue Nov  1 00:28:09 2022] [nid005741] - Abort(1) (rank 33 in comm 0): application called MPI_Abort(MPI_COMM_WORLD, 1) - process 33

aborting job:
application called MPI_Abort(MPI_COMM_WORLD, 1) - process 33
MPICH ERROR [Rank 58] [job id 2541589.20] [Tue Nov  1 00:28:09 2022] [nid005741] - Abort(1) (rank 58 in comm 0): application called MPI_Abort(MPI_COMM_WORLD, 1) - process 58

aborting job:
application called MPI_Abort(MPI_COMM_WORLD, 1) - process 58
MPICH ERROR [Rank 92] [job id 2541589.20] [Tue Nov  1 00:28:09 2022] [nid005741] - Abort(1) (rank 92 in comm 0): application called MPI_Abort(MPI_COMM_WORLD, 1) - process 92

aborting job:
application called MPI_Abort(MPI_COMM_WORLD, 1) - process 92
MPICH ERROR [Rank 1] [job id 2541589.20] [Tue Nov  1 00:28:09 2022] [nid005741] - Abort(1) (rank 1 in comm 0): application called MPI_Abort(MPI_COMM_WORLD, 1) - process 1

aborting job:
application called MPI_Abort(MPI_COMM_WORLD, 1) - process 1
MPICH ERROR [Rank 21] [job id 2541589.20] [Tue Nov  1 00:28:09 2022] [nid005741] - Abort(1) (rank 21 in comm 0): application called MPI_Abort(MPI_COMM_WORLD, 1) - process 21

aborting job:
application called MPI_Abort(MPI_COMM_WORLD, 1) - process 21
MPICH ERROR [Rank 31] [job id 2541589.20] [Tue Nov  1 00:28:09 2022] [nid005741] - Abort(1) (rank 31 in comm 0): application called MPI_Abort(MPI_COMM_WORLD, 1) - process 31

aborting job:
application called MPI_Abort(MPI_COMM_WORLD, 1) - process 31
MPICH ERROR [Rank 67] [job id 2541589.20] [Tue Nov  1 00:28:09 2022] [nid005741] - Abort(1) (rank 67 in comm 0): application called MPI_Abort(MPI_COMM_WORLD, 1) - process 67

aborting job:
application called MPI_Abort(MPI_COMM_WORLD, 1) - process 67
MPICH ERROR [Rank 77] [job id 2541589.20] [Tue Nov  1 00:28:09 2022] [nid005741] - Abort(1) (rank 77 in comm 0): application called MPI_Abort(MPI_COMM_WORLD, 1) - process 77

aborting job:
application called MPI_Abort(MPI_COMM_WORLD, 1) - process 77
MPICH ERROR [Rank 80] [job id 2541589.20] [Tue Nov  1 00:28:09 2022] [nid005741] - Abort(1) (rank 80 in comm 0): application called MPI_Abort(MPI_COMM_WORLD, 1) - process 80

aborting job:
application called MPI_Abort(MPI_COMM_WORLD, 1) - process 80
MPICH ERROR [Rank 91] [job id 2541589.20] [Tue Nov  1 00:28:09 2022] [nid005741] - Abort(1) (rank 91 in comm 0): application called MPI_Abort(MPI_COMM_WORLD, 1) - process 91

aborting job:
application called MPI_Abort(MPI_COMM_WORLD, 1) - process 91
MPICH ERROR [Rank 26] [job id 2541589.20] [Tue Nov  1 00:28:09 2022] [nid005741] - Abort(1) (rank 26 in comm 0): application called MPI_Abort(MPI_COMM_WORLD, 1) - process 26

aborting job:
application called MPI_Abort(MPI_COMM_WORLD, 1) - process 26
MPICH ERROR [Rank 46] [job id 2541589.20] [Tue Nov  1 00:28:09 2022] [nid005741] - Abort(1) (rank 46 in comm 0): application called MPI_Abort(MPI_COMM_WORLD, 1) - process 46

aborting job:
application called MPI_Abort(MPI_COMM_WORLD, 1) - process 46
MPICH ERROR [Rank 76] [job id 2541589.20] [Tue Nov  1 00:28:09 2022] [nid005741] - Abort(1) (rank 76 in comm 0): application called MPI_Abort(MPI_COMM_WORLD, 1) - process 76

aborting job:
application called MPI_Abort(MPI_COMM_WORLD, 1) - process 76
MPICH ERROR [Rank 85] [job id 2541589.20] [Tue Nov  1 00:28:09 2022] [nid005741] - Abort(1) (rank 85 in comm 0): application called MPI_Abort(MPI_COMM_WORLD, 1) - process 85

aborting job:
application called MPI_Abort(MPI_COMM_WORLD, 1) - process 85
MPICH ERROR [Rank 96] [job id 2541589.20] [Tue Nov  1 00:28:09 2022] [nid005741] - Abort(1) (rank 96 in comm 0): application called MPI_Abort(MPI_COMM_WORLD, 1) - process 96

aborting job:
application called MPI_Abort(MPI_COMM_WORLD, 1) - process 96
MPICH ERROR [Rank 116] [job id 2541589.20] [Tue Nov  1 00:28:09 2022] [nid005741] - Abort(1) (rank 116 in comm 0): application called MPI_Abort(MPI_COMM_WORLD, 1) - process 116

aborting job:
application called MPI_Abort(MPI_COMM_WORLD, 1) - process 116
MPICH ERROR [Rank 2] [job id 2541589.20] [Tue Nov  1 00:28:09 2022] [nid005741] - Abort(1) (rank 2 in comm 0): application called MPI_Abort(MPI_COMM_WORLD, 1) - process 2

aborting job:
application called MPI_Abort(MPI_COMM_WORLD, 1) - process 2
MPICH ERROR [Rank 8] [job id 2541589.20] [Tue Nov  1 00:28:09 2022] [nid005741] - Abort(1) (rank 8 in comm 0): application called MPI_Abort(MPI_COMM_WORLD, 1) - process 8

aborting job:
application called MPI_Abort(MPI_COMM_WORLD, 1) - process 8
MPICH ERROR [Rank 25] [job id 2541589.20] [Tue Nov  1 00:28:09 2022] [nid005741] - Abort(1) (rank 25 in comm 0): application called MPI_Abort(MPI_COMM_WORLD, 1) - process 25

aborting job:
application called MPI_Abort(MPI_COMM_WORLD, 1) - process 25
MPICH ERROR [Rank 41] [job id 2541589.20] [Tue Nov  1 00:28:09 2022] [nid005741] - Abort(1) (rank 41 in comm 0): application called MPI_Abort(MPI_COMM_WORLD, 1) - process 41

aborting job:
application called MPI_Abort(MPI_COMM_WORLD, 1) - process 41
MPICH ERROR [Rank 86] [job id 2541589.20] [Tue Nov  1 00:28:09 2022] [nid005741] - Abort(1) (rank 86 in comm 0): application called MPI_Abort(MPI_COMM_WORLD, 1) - process 86

aborting job:
application called MPI_Abort(MPI_COMM_WORLD, 1) - process 86
MPICH ERROR [Rank 113] [job id 2541589.20] [Tue Nov  1 00:28:09 2022] [nid005741] - Abort(1) (rank 113 in comm 0): application called MPI_Abort(MPI_COMM_WORLD, 1) - process 113

aborting job:
application called MPI_Abort(MPI_COMM_WORLD, 1) - process 113
MPICH ERROR [Rank 119] [job id 2541589.20] [Tue Nov  1 00:28:09 2022] [nid005741] - Abort(1) (rank 119 in comm 0): application called MPI_Abort(MPI_COMM_WORLD, 1) - process 119

aborting job:
application called MPI_Abort(MPI_COMM_WORLD, 1) - process 119
MPICH ERROR [Rank 45] [job id 2541589.20] [Tue Nov  1 00:28:09 2022] [nid005741] - Abort(1) (rank 45 in comm 0): application called MPI_Abort(MPI_COMM_WORLD, 1) - process 45

aborting job:
application called MPI_Abort(MPI_COMM_WORLD, 1) - process 45
MPICH ERROR [Rank 66] [job id 2541589.20] [Tue Nov  1 00:28:09 2022] [nid005741] - Abort(1) (rank 66 in comm 0): application called MPI_Abort(MPI_COMM_WORLD, 1) - process 66

aborting job:
application called MPI_Abort(MPI_COMM_WORLD, 1) - process 66
MPICH ERROR [Rank 111] [job id 2541589.20] [Tue Nov  1 00:28:09 2022] [nid005741] - Abort(1) (rank 111 in comm 0): application called MPI_Abort(MPI_COMM_WORLD, 1) - process 111

aborting job:
application called MPI_Abort(MPI_COMM_WORLD, 1) - process 111
MPICH ERROR [Rank 117] [job id 2541589.20] [Tue Nov  1 00:28:09 2022] [nid005741] - Abort(1) (rank 117 in comm 0): application called MPI_Abort(MPI_COMM_WORLD, 1) - process 117

aborting job:
application called MPI_Abort(MPI_COMM_WORLD, 1) - process 117
MPICH ERROR [Rank 53] [job id 2541589.20] [Tue Nov  1 00:28:09 2022] [nid005741] - Abort(1) (rank 53 in comm 0): application called MPI_Abort(MPI_COMM_WORLD, 1) - process 53

aborting job:
application called MPI_Abort(MPI_COMM_WORLD, 1) - process 53
srun: error: nid005741: tasks 0-127: Exited with exit code 255
srun: launch/slurm: _step_signal: Terminating StepId=2541589.20
end_date Tue Nov  1 00:28:10 GMT 2022
 
TEMPORARY          SAVED (in /mnt/lustre/a2fs-work2/work/e05/e05/bcamino/quantum_computing/test_model/optgeom)
binary wf (fort.9) is not written on this node
fort.87            graphene_3v_N.ERROR120      Nov 1 00:28
fort.34            graphene_3v_N.gui 1311     Nov 1 00:28
fort.33            graphene_3v_N.xyz 7283     Nov 1 00:28
SCFOUT.LOG         graphene_3v_N.SCFLOG135969   Nov 1 00:28
OPTINFO.DAT        graphene_3v_N.OPTINFO11906031 Nov 1 00:28
HESSOPT.DAT        graphene_3v_N.HESSOPT37485    Nov 1 00:28
opta001            opta002            
Disk usage:<du -m>
537	/mnt/lustre/a2fs-work2/work/e05/e05/bcamino/quantum_computing/test_model/optgeom/tmp_graphene_3v_N_
</du -m>
Filesystem                                          1K-blocks          Used     Available Use% Mounted on
10.253.102.2@o2ib1:10.253.102.3@o2ib1:/cls01097 3582178503216 1816316350472 1729636449060  52% /mnt/lustre/a2fs-work2
10.253.102.2@o2ib1:10.253.102.3@o2ib1:/cls01097 3582178503216 1816316350472 1729636449060  52% /mnt/lustre/a2fs-work2
