date:                Mon Oct 31 23:21:52 GMT 2022
hostname:            nid005741
system:              Linux nid005741 4.12.14-197.78_9.1.64-cray_shasta_c #1 SMP Wed Aug 25 14:56:40 UTC 2021 (4e2a900) x86_64 x86_64 x86_64 GNU/Linux
user:                bcamino
input:               /mnt/lustre/a2fs-work2/work/e05/e05/bcamino/quantum_computing/test_model/optgeom/graphene_3v_K.d12
output:              /mnt/lustre/a2fs-work2/work/e05/e05/bcamino/quantum_computing/test_model/optgeom/graphene_3v_K.out
executable script:   /work/e05/e05/bcamino/runCRYSTAL/Pcry_slurm
executable:          Pcrystal
Command:             srun --hint=nomultithread --distribution=block:block Pcrystal
Slurm JobID:         
temporary directory: /mnt/lustre/a2fs-work2/work/e05/e05/bcamino/quantum_computing/test_model/optgeom/tmp_graphene_3v_K_      
input data /mnt/lustre/a2fs-work2/work/e05/e05/bcamino/quantum_computing/test_model/optgeom/graphene_3v_K.d12
Final
EXTERNAL
SYMMREMO
OPTGEOM
ATOMONLY
END
END
6 8
0 0 6 2.0 1.0
  13575.349682      0.00022245814352
  2035.2333680      0.00172327382520
  463.22562359      0.00892557153140
  131.20019598      0.03572798450200
  42.853015891      0.11076259931000
  15.584185766      0.24295627626000
0 0 2 2.0 1.0
  6.2067138508      0.41440263448000
  2.5764896527      0.23744968655000
0 0 1 0.0 1.0
  0.4941102000      1.00000000000000
0 0 1 0.0 1.0
  0.1644071000      1.00000000000000
0 2 4 2.0 1.0
  34.697232244      0.00533336578050
  7.9582622826      0.03586410909200
  2.3780826883      0.14215873329000
  0.8143320818      0.34270471845000
0 2 1 0.0 1.0
  0.5662417100      1.00000000000000
0 2 1 0.0 1.0
  0.1973545000      1.00000000000000
0 3 1 0.0 1.0
  0.5791584200      1.00000000000000
99 0
ENDBS
DFT
PBE  
ENDDFT
TOLINTEG
8 8 8 8 16
SCFDIR
SHRINK
8 16  
MAXCYCLE
200
TOLDEE
9 
ENDSCF
input data /mnt/lustre/a2fs-work2/work/e05/e05/bcamino/quantum_computing/test_model/optgeom/graphene_3v_K.gui
         128 PROCESSORS WORKING

         
 *******************************************************************************
 *                                                                             *
 *                               CRYSTAL17                                     *
 *                      public : 1.0.2 - March 1st, 2018 STFC/Archer2 build    *
 *                       HTTP://WWW.CRYSTAL.UNITO.IT                           *
 *                                                                             *
 *                              MAIN AUTHORS                                   *
 *                                                                             *
 *  R. DOVESI(1,11), V.R. SAUNDERS(2), C. ROETTI(1,11), R. ORLANDO(1,11),      *
 *  C.M. ZICOVICH-WILSON(1,3), F. PASCALE(4), B. CIVALLERI(1,11),              *
 *  K. DOLL(5), N.M. HARRISON(2,6), I.J. BUSH(7), Ph. D'ARCO(8),               *
 *  M. LLUNELL(9), M. CAUSA'(10), Y. NOEL(8), L. MASCHIO(1,11), A. ERBA(1,11)  *
 *  M. RE'RAT(14), S. CASASSA(1,11)                                            *
 *                                                                             *
 *        CONTRIBUTIONS TO THE CODE HAVE ALSO BEEN GIVEN BY                    *
 *                                                                             *
 *  M. FERRABONE(1,11), M. DE LA PIERRE(1,11), M. FERRERO(1,11),               *
 *  J. BAIMA(1,11), E. ALBANESE(1,11), M.F. PEINTINGER(12), R. BAST(13),       *
 *  B. KIRTMAN(15), V. LACIVITA(1,11), R. DEMICHELIS(1,16)                     *
 *  G. BRANDEBURG(17), S. SALUSTRO(1,11), G. SANSONE(1,11)                     *
 *  M.T. RUGGIERO(18)                                                          *
 *                                                                             *
 * (1) THEORETICAL CHEMISTRY GROUP - UNIVERSITA' DI TORINO - TORINO (ITALY)    *
 * (2) COMPUTATIONAL SCIENCE & ENGINEERING DEPARTMENT - STFC DARESBURY (UK)    *
 * (3) UNIVERSIDAD AUTONOMA DEL ESTADO DE MORELOS - CUERNAVACA (MEXICO)        *
 * (4) UNIVERSITE' DE LORRAINE - NANCY (FRANCE)                                *
 * (5) UNIVERSITAET STUTTGART- STUTTGART (GERMANY)                             *
 * (6) IMPERIAL COLLEGE - LONDON (UK)                                          *
 * (7) OXFORD E-RESEARCH CENTRE - OXFORD (UK)                                  *
 * (8) UPMC - SORBONNE UNIVERSITES - PARIS (FRANCE)                            *
 * (9) UNIVERSIDAD DE BARCELONA - BARCELONA (SPAIN)                            *
 *(10) UNIVERSITA' DI NAPOLI "FEDERICO II" - NAPOLI (ITALY)                    *
 *(11) NIS - NANOSTRUCTURED INTERFACES AND SURFACES - TORINO (ITALY)           *
 *(12) MPI FUER CHEMISCHE ENERGIEKONVERSION - MUELHEIM AN DER RUHR (GERMANY)   *
 *(13) UNIVERSITY OF TROMSO - TROMSO (NORWAY)                                  *
 *(14) UNIVERSITE' DE PAU ET DES PAYS DE L'ADOUR - PAU (FRANCE)                *
 *(15) UNIVERSITY OF CALIFORNIA SANTA BARBARA - SANTA BARBARA (USA)            *
 *(16) CURTIN UNIVERSITY - PERTH (AUSTRALIA)                                   *
 *(17) UNIVERSITY COLLEGE LONDON - LONDON (UK)                                 *
 *(18) CAMBRIDGE UNIVERSITY - CAMBRIDGE (UK)                                   *
 *                                                                             *
 *******************************************************************************
 EEEEEEEEEE STARTING  DATE 31 10 2022 TIME 23:21:55.1
 Final                                                                           

 GEOMETRY INPUT FROM EXTERNAL FILE (FORTRAN UNIT 34)
 3D - CRYSTAL 

 *******************************************************************************
 LATTICE PARAMETERS  (ANGSTROMS AND DEGREES) - PRIMITIVE CELL
       A          B          C        ALPHA      BETA     GAMMA        VOLUME
    7.40317    7.40317    8.68504    90.00000  90.00000 120.00000    412.228566
 INFORMATION **** CHKGRP **** SPGR WITH NO INVERSION

 NUMBER OF IRREDUCIBLE ATOMS IN THE CELL:   15

 CARTESIAN COORDINATES (ANGSTROM) - IRREDUCIBLE ATOMS AND SYMMETRY RELATED

 AT.IRR.  AT  AT.N.          X                   Y                   Z
     1     1     6    2.467724141366E+00  2.849482394607E+00  2.605511400000E+00
     2     2     6    3.701586212049E+00  4.986594190562E+00  2.605511400000E+00
     3     3     6    2.467724141366E+00 -1.424741197304E+00  2.605511400000E+00
     4     4     6    4.935448282733E+00  2.849482394607E+00  2.605511400000E+00
     5     5     6    3.701586212049E+00 -3.561852993259E+00  2.605511400000E+00
     6     6     6    4.935448282733E+00 -1.424741197304E+00  2.605511400000E+00
     7     7     6    6.169310353416E+00  7.123705986520E-01  2.605511400000E+00
     8     8     6    1.233862070683E+00 -7.123705986520E-01  2.605511400000E+00
     9     9     6    2.467724141366E+00  1.424741197304E+00  2.605511400000E+00
    10    10     6    2.467724141366E+00 -2.849482394607E+00  2.605511400000E+00
    11    11     6    3.701586212049E+00 -7.123705986520E-01  2.605511400000E+00
    12    12     6    4.935448282733E+00  1.424741197304E+00  2.605511400000E+00
    13    13     6    3.701586212049E+00 -4.986594190562E+00  2.605511400000E+00
    14    14     6    4.935448282733E+00 -2.849482394607E+00  2.605511400000E+00
    15    15     6    6.169310353416E+00 -7.123705986520E-01  2.605511400000E+00

 SPACE  GROUP  N.                     :    1
 NUMBER OF SYMMETRY OPERATORS         :    1
 *******************************************************************************
 LATTICE PARAMETERS (ANGSTROMS AND DEGREES) - BOHR = 0.5291772083 ANGSTROM
 PRIMITIVE CELL - CENTRING CODE 1/0 VOLUME=   412.228566 - DENSITY  0.725 g/cm^3
         A              B              C           ALPHA      BETA       GAMMA 
     7.40317242     7.40317242     8.68503800    90.000000  90.000000 120.000000
 *******************************************************************************
 ATOMS IN THE ASYMMETRIC UNIT   15 - ATOMS IN THE UNIT CELL:   15
     ATOM                 X/A                 Y/B                 Z/C    
 *******************************************************************************
      1 T   6 C     1.111111111111E-01 -4.444444444445E-01  3.000000000000E-01
      2 T   6 C     1.111111111111E-01 -1.111111111111E-01  3.000000000000E-01
      3 T   6 C     4.444444444445E-01  2.222222222222E-01  3.000000000000E-01
      4 T   6 C     4.444444444446E-01 -1.111111111110E-01  3.000000000000E-01
      5 T   6 C    -2.222222222222E-01  2.222222222222E-01  3.000000000000E-01
      6 T   6 C    -2.222222222221E-01 -4.444444444443E-01  3.000000000000E-01
      7 T   6 C    -2.222222222221E-01 -1.111111111110E-01  3.000000000000E-01
      8 T   6 C     2.222222222222E-01  1.111111111111E-01  3.000000000000E-01
      9 T   6 C     2.222222222222E-01  4.444444444445E-01  3.000000000000E-01
     10 T   6 C    -4.444444444445E-01  1.111111111111E-01  3.000000000000E-01
     11 T   6 C    -4.444444444444E-01  4.444444444444E-01  3.000000000000E-01
     12 T   6 C    -4.444444444443E-01 -2.222222222221E-01  3.000000000000E-01
     13 T   6 C    -1.111111111111E-01  1.111111111111E-01  3.000000000000E-01
     14 T   6 C    -1.111111111110E-01  4.444444444446E-01  3.000000000000E-01
     15 T   6 C    -1.111111111110E-01 -2.222222222221E-01  3.000000000000E-01

 T = ATOM BELONGING TO THE ASYMMETRIC UNIT
 *******************************************************************************
 * GEOMETRY EDITING - INPUT COORDINATES ARE GIVEN IN ANGSTROM         
 *******************************************************************************

 USE OF SYMMETRY WILL BE SUBSEQUENTLY SUSPENDED
 INFORMATION **** NEW DEFAULT **** FINALRUN 4 FOR GEOMETRY OPTIMIZATIONS
 INFORMATION **** NEW DEFAULT **** OPTGEOM OPTIMIZES BOTH ATOMIC COORDINATES AND CELL PARAMETERS
 INFORMATION **** NEW DEFAULT **** TOL. ON ATOMIC DISP TO REDEFINE REF. GEOMETRY: 0.8 Angs
 INFORMATION **** NEW DEFAULT **** N POINTS TO REDEFINE REF. GEOMETRY: N OF OPT DEGS OF FREEDOM
 INFORMATION **** NEW DEFAULT **** TOL. ON ENERGY TO REDEFINE REF. GEOMETRY: 10**-3*(5*N. ATOMS)
 INFORMATION **** ATOMONLY **** ONLY ATOMIC COORDINATES ARE OPTIMIZED

 IMPORTANT INFORMATION:
 THE COORDINATE SYSTEM ADOPTED IN THE OPTIMIZATION IS NOT IN
 GENERAL HOMOGENEOUS UNITS. FOR THIS REASON THE GRADIENT AND 
 HESSIAN MATRIX IN TERMS OF THIS SYSTEM ARE GIVEN WITHOUT
 UNITS. FOR MORE DETAILS SEE THE MANUAL.

 *******************************************************************************
 ATOMIC POSITIONS OPTIMIZATION CONTROL

 INITIAL TRUST RADIUS         0.50000 MAXIMUM TRUST RADIUS               4.00000
 MAXIMUM GRADIENT COMPONENT   0.00045 MAXIMUM DISPLACEMENT COMPONENT     0.00180
 R.M.S. OF GRADIENT COMPONENT 0.00030 R.M.S. OF DISPLACEMENT COMPONENTS  0.00120
 THRESHOLD ON ENERGY CHANGE 0.100E-06 EXTRAPOLATING POLYNOMIAL ORDER           2
 MAXIMUM ALLOWED NUMBER OF STEPS   -1 SORTING OF ENERGY POINTS:               NO
 ANALYTICAL  GRADIENT                 HESSIAN UPDATING                      BFGS
 STEP SIZE NUMERICAL GRADIENT 0.00100
 INITIAL HESSIAN MATRIX: SCHLEGEL MODEL 2
 *******************************************************************************


 GCALCO - MAX INDICES DIRECT LATTICE VECTOR    16    16    12
 NO.OF VECTORS CREATED 6999 STARS  379 RMAX   166.99060 BOHR

 GEOMETRY FOR WAVE FUNCTION - DIMENSIONALITY OF THE SYSTEM    3
 (NON PERIODIC DIRECTION: LATTICE PARAMETER FORMALLY SET TO 500)
 *******************************************************************************
 LATTICE PARAMETERS (ANGSTROMS AND DEGREES) - BOHR = 0.5291772083 ANGSTROM
 PRIMITIVE CELL - CENTRING CODE 1/0 VOLUME=   412.228566 - DENSITY  0.725 g/cm^3
         A              B              C           ALPHA      BETA       GAMMA 
     7.40317242     7.40317242     8.68503800    90.000000  90.000000 120.000000
 *******************************************************************************
 ATOMS IN THE ASYMMETRIC UNIT   15 - ATOMS IN THE UNIT CELL:   15
     ATOM                 X/A                 Y/B                 Z/C    
 *******************************************************************************
      1 T   6 C     1.111111111111E-01 -4.444444444445E-01  3.000000000000E-01
      2 T   6 C     1.111111111111E-01 -1.111111111111E-01  3.000000000000E-01
      3 T   6 C     4.444444444445E-01  2.222222222222E-01  3.000000000000E-01
      4 T   6 C     4.444444444446E-01 -1.111111111110E-01  3.000000000000E-01
      5 T   6 C    -2.222222222222E-01  2.222222222222E-01  3.000000000000E-01
      6 T   6 C    -2.222222222221E-01 -4.444444444443E-01  3.000000000000E-01
      7 T   6 C    -2.222222222221E-01 -1.111111111110E-01  3.000000000000E-01
      8 T   6 C     2.222222222222E-01  1.111111111111E-01  3.000000000000E-01
      9 T   6 C     2.222222222222E-01  4.444444444445E-01  3.000000000000E-01
     10 T   6 C    -4.444444444445E-01  1.111111111111E-01  3.000000000000E-01
     11 T   6 C    -4.444444444444E-01  4.444444444444E-01  3.000000000000E-01
     12 T   6 C    -4.444444444443E-01 -2.222222222221E-01  3.000000000000E-01
     13 T   6 C    -1.111111111111E-01  1.111111111111E-01  3.000000000000E-01
     14 T   6 C    -1.111111111110E-01  4.444444444446E-01  3.000000000000E-01
     15 T   6 C    -1.111111111110E-01 -2.222222222221E-01  3.000000000000E-01

 T = ATOM BELONGING TO THE ASYMMETRIC UNIT

 ****    1 SYMMOPS - TRANSLATORS IN FRACTIONAL UNITS
 **** MATRICES AND TRANSLATORS IN THE CRYSTALLOGRAPHIC REFERENCE FRAME
   V INV                    ROTATION MATRICES                   TRANSLATORS
   1   1  1.00  0.00  0.00  0.00  1.00  0.00  0.00  0.00  1.00  0.00  0.00  0.00

 DIRECT LATTICE VECTORS CARTESIAN COMPONENTS (ANGSTROM)
          X                    Y                    Z
   0.370158621205E+01  -0.641133538787E+01   0.000000000000E+00
   0.370158621205E+01   0.641133538787E+01   0.000000000000E+00
   0.000000000000E+00   0.000000000000E+00   0.868503800000E+01


 CARTESIAN COORDINATES - PRIMITIVE CELL
 *******************************************************************************
 *      ATOM          X(ANGSTROM)         Y(ANGSTROM)         Z(ANGSTROM)
 *******************************************************************************
    1     6 C     2.467724141366E+00  2.849482394607E+00  2.605511400000E+00
    2     6 C     3.701586212049E+00  4.986594190562E+00  2.605511400000E+00
    3     6 C     2.467724141366E+00 -1.424741197304E+00  2.605511400000E+00
    4     6 C     4.935448282733E+00  2.849482394607E+00  2.605511400000E+00
    5     6 C     3.701586212049E+00 -3.561852993259E+00  2.605511400000E+00
    6     6 C     4.935448282733E+00 -1.424741197304E+00  2.605511400000E+00
    7     6 C     6.169310353416E+00  7.123705986520E-01  2.605511400000E+00
    8     6 C     1.233862070683E+00 -7.123705986520E-01  2.605511400000E+00
    9     6 C     2.467724141366E+00  1.424741197304E+00  2.605511400000E+00
   10     6 C     2.467724141366E+00 -2.849482394607E+00  2.605511400000E+00
   11     6 C     3.701586212049E+00 -7.123705986520E-01  2.605511400000E+00
   12     6 C     4.935448282733E+00  1.424741197304E+00  2.605511400000E+00
   13     6 C     3.701586212049E+00 -4.986594190562E+00  2.605511400000E+00
   14     6 C     4.935448282733E+00 -2.849482394607E+00  2.605511400000E+00
   15     6 C     6.169310353416E+00 -7.123705986520E-01  2.605511400000E+00

 *******************************************************************************
 LOCAL ATOMIC FUNCTIONS BASIS SET
 *******************************************************************************
   ATOM   X(AU)   Y(AU)   Z(AU)  N. TYPE  EXPONENT  S COEF   P COEF   D/F/G COEF
 *******************************************************************************
   1 C    4.663   5.385   4.924
                                  1 S  
                                         1.358E+04 2.225E-04 0.000E+00 0.000E+00
                                         2.035E+03 1.723E-03 0.000E+00 0.000E+00
                                         4.632E+02 8.926E-03 0.000E+00 0.000E+00
                                         1.312E+02 3.573E-02 0.000E+00 0.000E+00
                                         4.285E+01 1.108E-01 0.000E+00 0.000E+00
                                         1.558E+01 2.430E-01 0.000E+00 0.000E+00
                                  2 S  
                                         6.207E+00 4.144E-01 0.000E+00 0.000E+00
                                         2.576E+00 2.374E-01 0.000E+00 0.000E+00
                                  3 S  
                                         4.941E-01 1.000E+00 0.000E+00 0.000E+00
                                  4 S  
                                         1.644E-01 1.000E+00 0.000E+00 0.000E+00
                           5-     7 P  
                                         3.470E+01 0.000E+00 5.333E-03 0.000E+00
                                         7.958E+00 0.000E+00 3.586E-02 0.000E+00
                                         2.378E+00 0.000E+00 1.422E-01 0.000E+00
                                         8.143E-01 0.000E+00 3.427E-01 0.000E+00
                           8-    10 P  
                                         5.662E-01 0.000E+00 1.000E+00 0.000E+00
                          11-    13 P  
                                         1.974E-01 0.000E+00 1.000E+00 0.000E+00
                          14-    18 D  
                                         5.792E-01 0.000E+00 0.000E+00 1.000E+00
   2 C    6.995   9.423   4.924
   3 C    4.663  -2.692   4.924
   4 C    9.327   5.385   4.924
   5 C    6.995  -6.731   4.924
   6 C    9.327  -2.692   4.924
   7 C   11.658   1.346   4.924
   8 C    2.332  -1.346   4.924
   9 C    4.663   2.692   4.924
  10 C    4.663  -5.385   4.924
  11 C    6.995  -1.346   4.924
  12 C    9.327   2.692   4.924
  13 C    6.995  -9.423   4.924
  14 C    9.327  -5.385   4.924
  15 C   11.658  -1.346   4.924
 INFORMATION **** SET_MPP **** PCRYSTAL CALCULATION
 INFORMATION **** READM2 **** NEW DEFAULT: FOCK/KS MATRIX MIXING SET TO 30 %
 INFORMATION **** READM2 **** NEW DEFAULT: FULL DIRECT SCF MODE
 INFORMATION **** READM2 **** NEW DEFAULT: COULOMB BIPOLAR BUFFER SET TO 32 Mb
 INFORMATION **** READM2 **** NEW DEFAULT: EXCHANGE BIPOLAR BUFFER SET TO 32 Mb

 *******************************************************************************
 NEW DEFAULT: DFT INTEGRATION GRID INCREASED TO XLGRID
 NEW DEFAULT: DIIS ACCELERATOR ACTIVE
 USE KEYWORD NODIIS TO TURN IT OFF
 *******************************************************************************

 INFORMATION **** TOLINTEG **** COULOMB AND EXCHANGE SERIES TOLERANCES MODIFIED
 INFORMATION **** READM2 **** FULL DIRECT SCF (MONO AND BIEL INT) SELECTED
 INFORMATION **** MAXCYCLE **** MAX NUMBER OF SCF CYCLES SET TO         200
 INFORMATION **** TOLDEE **** SCF TOL ON TOTAL ENERGY SET TO           9
 *******************************************************************************
 N. OF ATOMS PER CELL        15  COULOMB OVERLAP TOL         (T1) 10**   -8
 NUMBER OF SHELLS           120  COULOMB PENETRATION TOL     (T2) 10**   -8
 NUMBER OF AO               270  EXCHANGE OVERLAP TOL        (T3) 10**   20
 N. OF ELECTRONS PER CELL    90  EXCHANGE PSEUDO OVP (F(G))  (T4) 10**   20
 CORE ELECTRONS PER CELL     30  EXCHANGE PSEUDO OVP (P(G))  (T5) 10**   20
 N. OF SYMMETRY OPERATORS     1  POLE ORDER IN MONO ZONE                  4
 *******************************************************************************
 TYPE OF CALCULATION :  RESTRICTED CLOSED SHELL
 KOHN-SHAM HAMILTONIAN

 (EXCHANGE)[CORRELATION] FUNCTIONAL:(PERDEW-BURKE-ERNZERHOF)[PERDEW-BURKE-ERNZERHOF]


 CAPPA:IS1  8;IS2  8;IS3  8; K PTS MONK NET 260; SYMMOPS:K SPACE   2;G SPACE   1

 *******************************************************************************
 MAX NUMBER OF SCF CYCLES     200  CONVERGENCE ON DELTAP        10**-19
 WEIGHT OF F(I) IN F(I+1)      30% CONVERGENCE ON ENERGY        10**- 9
 SHRINK. FACT.(MONKH.)    8  8  8  NUMBER OF K POINTS IN THE IBZ    260
 SHRINKING FACTOR(GILAT NET)   16  NUMBER OF K POINTS(GILAT NET)   2052
 *******************************************************************************
 *** K POINTS COORDINATES (OBLIQUE COORDINATES IN UNITS OF IS =  8)
   1-R(  0  0  0)   2-C(  1  0  0)   3-C(  2  0  0)   4-C(  3  0  0)
   5-R(  4  0  0)   6-C(  0  1  0)   7-C(  1  1  0)   8-C(  2  1  0)
   9-C(  3  1  0)  10-C(  4  1  0)  11-C(  5  1  0)  12-C(  6  1  0)
  13-C(  7  1  0)  14-C(  0  2  0)  15-C(  1  2  0)  16-C(  2  2  0)
  17-C(  3  2  0)  18-C(  4  2  0)  19-C(  5  2  0)  20-C(  6  2  0)
  21-C(  7  2  0)  22-C(  0  3  0)  23-C(  1  3  0)  24-C(  2  3  0)
  25-C(  3  3  0)  26-C(  4  3  0)  27-C(  5  3  0)  28-C(  6  3  0)
  29-C(  7  3  0)  30-R(  0  4  0)  31-C(  1  4  0)  32-C(  2  4  0)
  33-C(  3  4  0)  34-R(  4  4  0)  35-C(  0  0  1)  36-C(  1  0  1)
  37-C(  2  0  1)  38-C(  3  0  1)  39-C(  4  0  1)  40-C(  5  0  1)
  41-C(  6  0  1)  42-C(  7  0  1)  43-C(  0  1  1)  44-C(  1  1  1)
  45-C(  2  1  1)  46-C(  3  1  1)  47-C(  4  1  1)  48-C(  5  1  1)
  49-C(  6  1  1)  50-C(  7  1  1)  51-C(  0  2  1)  52-C(  1  2  1)
  53-C(  2  2  1)  54-C(  3  2  1)  55-C(  4  2  1)  56-C(  5  2  1)
  57-C(  6  2  1)  58-C(  7  2  1)  59-C(  0  3  1)  60-C(  1  3  1)
  61-C(  2  3  1)  62-C(  3  3  1)  63-C(  4  3  1)  64-C(  5  3  1)
  65-C(  6  3  1)  66-C(  7  3  1)  67-C(  0  4  1)  68-C(  1  4  1)
  69-C(  2  4  1)  70-C(  3  4  1)  71-C(  4  4  1)  72-C(  5  4  1)
  73-C(  6  4  1)  74-C(  7  4  1)  75-C(  0  5  1)  76-C(  1  5  1)
  77-C(  2  5  1)  78-C(  3  5  1)  79-C(  4  5  1)  80-C(  5  5  1)
  81-C(  6  5  1)  82-C(  7  5  1)  83-C(  0  6  1)  84-C(  1  6  1)
  85-C(  2  6  1)  86-C(  3  6  1)  87-C(  4  6  1)  88-C(  5  6  1)
  89-C(  6  6  1)  90-C(  7  6  1)  91-C(  0  7  1)  92-C(  1  7  1)
  93-C(  2  7  1)  94-C(  3  7  1)  95-C(  4  7  1)  96-C(  5  7  1)
  97-C(  6  7  1)  98-C(  7  7  1)  99-C(  0  0  2) 100-C(  1  0  2)
 101-C(  2  0  2) 102-C(  3  0  2) 103-C(  4  0  2) 104-C(  5  0  2)
 105-C(  6  0  2) 106-C(  7  0  2) 107-C(  0  1  2) 108-C(  1  1  2)
 109-C(  2  1  2) 110-C(  3  1  2) 111-C(  4  1  2) 112-C(  5  1  2)
 113-C(  6  1  2) 114-C(  7  1  2) 115-C(  0  2  2) 116-C(  1  2  2)
 117-C(  2  2  2) 118-C(  3  2  2) 119-C(  4  2  2) 120-C(  5  2  2)
 121-C(  6  2  2) 122-C(  7  2  2) 123-C(  0  3  2) 124-C(  1  3  2)
 125-C(  2  3  2) 126-C(  3  3  2) 127-C(  4  3  2) 128-C(  5  3  2)
 129-C(  6  3  2) 130-C(  7  3  2) 131-C(  0  4  2) 132-C(  1  4  2)
 133-C(  2  4  2) 134-C(  3  4  2) 135-C(  4  4  2) 136-C(  5  4  2)
 137-C(  6  4  2) 138-C(  7  4  2) 139-C(  0  5  2) 140-C(  1  5  2)
 141-C(  2  5  2) 142-C(  3  5  2) 143-C(  4  5  2) 144-C(  5  5  2)
 145-C(  6  5  2) 146-C(  7  5  2) 147-C(  0  6  2) 148-C(  1  6  2)
 149-C(  2  6  2) 150-C(  3  6  2) 151-C(  4  6  2) 152-C(  5  6  2)
 153-C(  6  6  2) 154-C(  7  6  2) 155-C(  0  7  2) 156-C(  1  7  2)
 157-C(  2  7  2) 158-C(  3  7  2) 159-C(  4  7  2) 160-C(  5  7  2)
 161-C(  6  7  2) 162-C(  7  7  2) 163-C(  0  0  3) 164-C(  1  0  3)
 165-C(  2  0  3) 166-C(  3  0  3) 167-C(  4  0  3) 168-C(  5  0  3)
 169-C(  6  0  3) 170-C(  7  0  3) 171-C(  0  1  3) 172-C(  1  1  3)
 173-C(  2  1  3) 174-C(  3  1  3) 175-C(  4  1  3) 176-C(  5  1  3)
 177-C(  6  1  3) 178-C(  7  1  3) 179-C(  0  2  3) 180-C(  1  2  3)
 181-C(  2  2  3) 182-C(  3  2  3) 183-C(  4  2  3) 184-C(  5  2  3)
 185-C(  6  2  3) 186-C(  7  2  3) 187-C(  0  3  3) 188-C(  1  3  3)
 189-C(  2  3  3) 190-C(  3  3  3) 191-C(  4  3  3) 192-C(  5  3  3)
 193-C(  6  3  3) 194-C(  7  3  3) 195-C(  0  4  3) 196-C(  1  4  3)
 197-C(  2  4  3) 198-C(  3  4  3) 199-C(  4  4  3) 200-C(  5  4  3)
 201-C(  6  4  3) 202-C(  7  4  3) 203-C(  0  5  3) 204-C(  1  5  3)
 205-C(  2  5  3) 206-C(  3  5  3) 207-C(  4  5  3) 208-C(  5  5  3)
 209-C(  6  5  3) 210-C(  7  5  3) 211-C(  0  6  3) 212-C(  1  6  3)
 213-C(  2  6  3) 214-C(  3  6  3) 215-C(  4  6  3) 216-C(  5  6  3)
 217-C(  6  6  3) 218-C(  7  6  3) 219-C(  0  7  3) 220-C(  1  7  3)
 221-C(  2  7  3) 222-C(  3  7  3) 223-C(  4  7  3) 224-C(  5  7  3)
 225-C(  6  7  3) 226-C(  7  7  3) 227-R(  0  0  4) 228-C(  1  0  4)
 229-C(  2  0  4) 230-C(  3  0  4) 231-R(  4  0  4) 232-C(  0  1  4)
 233-C(  1  1  4) 234-C(  2  1  4) 235-C(  3  1  4) 236-C(  4  1  4)
 237-C(  5  1  4) 238-C(  6  1  4) 239-C(  7  1  4) 240-C(  0  2  4)
 241-C(  1  2  4) 242-C(  2  2  4) 243-C(  3  2  4) 244-C(  4  2  4)
 245-C(  5  2  4) 246-C(  6  2  4) 247-C(  7  2  4) 248-C(  0  3  4)
 249-C(  1  3  4) 250-C(  2  3  4) 251-C(  3  3  4) 252-C(  4  3  4)
 253-C(  5  3  4) 254-C(  6  3  4) 255-C(  7  3  4) 256-R(  0  4  4)
 257-C(  1  4  4) 258-C(  2  4  4) 259-C(  3  4  4) 260-R(  4  4  4)

 DIRECT LATTICE VECTORS COMPON. (A.U.)     RECIP. LATTICE VECTORS COMPON. (A.U.) 
        X            Y            Z              X            Y            Z
    6.9949842  -12.1156680    0.0000000      0.4491208   -0.2593000    0.0000000
    6.9949842   12.1156680    0.0000000      0.4491208    0.2593000   -0.0000000
    0.0000000    0.0000000   16.4123433     -0.0000000    0.0000000    0.3828329

 DISK SPACE FOR EIGENVECTORS (FTN 10)    37324800 REALS

 SYMMETRY ADAPTION OF THE BLOCH FUNCTIONS DISABLED
 TTTTTTTTTTTTTTTTTTTTTTTTTTTTTT gordsh1     TELAPSE        2.44 TCPU        1.08

 MATRIX SIZE: P(G)  110958, F(G)   55659, P(G) IRR   55944, F(G) IRR   55944
 MAX G-VECTOR INDEX FOR 1- AND 2-ELECTRON INTEGRALS  27

 TTTTTTTTTTTTTTTTTTTTTTTTTTTTTT INPUT       TELAPSE        2.45 TCPU        1.08

 NEIGHBORS OF THE NON-EQUIVALENT ATOMS

 N = NUMBER OF NEIGHBORS AT DISTANCE R
    ATOM  N     R/ANG      R/AU   NEIGHBORS (ATOM LABELS AND CELL INDICES)
   1 C    2     1.4247     2.6924    9 C    0 0 0   14 C   -1 0 0
   1 C    4     2.4677     4.6633    2 C    0 0 0    4 C    0 0 0    5 C   -1 0 0
                                     6 C   -1 0 0
   1 C    3     2.8495     5.3847   12 C    0 0 0   13 C   -1 0 0   15 C   -1 0 0
   1 C    6     3.7695     7.1233    8 C    0 0 0    8 C    0 1 0   10 C   -1 0 0
                                    10 C    0 1 0   11 C    0 0 0   11 C   -1 0 0
   1 C    6     4.2742     8.0771    3 C    0 0 0    3 C   -1 0 0    3 C    0 1 0
                                     7 C    0 0 0    7 C   -1-1 0    7 C   -1 0 0
   1 C    4     4.9354     9.3266    2 C    0-1 0    4 C   -1-1 0    5 C    0 1 0
                                     6 C    0 0 0

   2 C    2     1.4247     2.6924    8 C    0 1 0   15 C   -1 0 0
   2 C    5     2.4677     4.6633    1 C    0 0 0    3 C    0 1 0    4 C    0 0 0
                                     6 C   -1 0 0    7 C   -1 0 0
   2 C    3     2.8495     5.3847   10 C    0 1 0   13 C   -1 1 0   14 C   -1 0 0
   2 C    6     3.7695     7.1233    9 C    0 0 0    9 C    0 1 0   11 C   -1 0 0
                                    11 C    0 1 0   12 C    0 0 0   12 C   -1 0 0
   2 C    3     4.2742     8.0771    5 C   -1 0 0    5 C    0 1 0    5 C   -1 1 0
   2 C    5     4.9354     9.3266    1 C    0 1 0    3 C   -1 0 0    4 C   -1 0 0
                                     6 C    0 1 0    7 C    0 0 0

   3 C    3     1.4247     2.6924    8 C    0 0 0   10 C    0 0 0   11 C    0 0 0
   3 C    4     2.4677     4.6633    2 C    0-1 0    4 C    0-1 0    5 C    0 0 0
                                     6 C    0 0 0
   3 C    2     2.8495     5.3847    9 C    0 0 0   14 C    0 0 0
   3 C    6     3.7695     7.1233   12 C    0 0 0   12 C    0-1 0   13 C    0 0 0
                                    13 C   -1 0 0   15 C    0 0 0   15 C   -1-1 0
   3 C    6     4.2742     8.0771    1 C    0 0 0    1 C    1 0 0    1 C    0-1 0
                                     7 C    0 0 0    7 C   -1-1 0    7 C    0-1 0
   3 C    4     4.9354     9.3266    2 C    1 0 0    4 C    0 0 0    5 C   -1 0 0
                                     6 C   -1-1 0

   4 C    2     1.4247     2.6924   10 C    0 1 0   12 C    0 0 0
   4 C    5     2.4677     4.6633    1 C    0 0 0    2 C    0 0 0    3 C    0 1 0
                                     5 C    0 1 0    7 C    0 0 0
   4 C    3     2.8495     5.3847    8 C    0 1 0    9 C    0 0 0   13 C    0 1 0
   4 C    6     3.7695     7.1233   11 C    0 0 0   11 C    0 1 0   14 C   -1 0 0
                                    14 C    0 1 0   15 C    0 0 0   15 C   -1 0 0
   4 C    3     4.2742     8.0771    6 C    0 0 0    6 C   -1 0 0    6 C    0 1 0
   4 C    5     4.9354     9.3266    1 C    1 1 0    2 C    1 0 0    3 C    0 0 0
                                     5 C   -1 0 0    7 C   -1 0 0

   5 C    3     1.4247     2.6924   10 C    0 0 0   13 C    0 0 0   14 C    0 0 0
   5 C    5     2.4677     4.6633    1 C    1 0 0    3 C    0 0 0    4 C    0-1 0
                                     6 C    0 0 0    7 C    0-1 0
   5 C    3     2.8495     5.3847    9 C    1 0 0   11 C    0 0 0   12 C    0-1 0
   5 C    4     3.7695     7.1233    8 C    0 0 0    8 C    1 0 0   15 C    0 0 0
                                    15 C    0-1 0
   5 C    3     4.2742     8.0771    2 C    1 0 0    2 C    0-1 0    2 C    1-1 0
   5 C    5     4.9354     9.3266    1 C    0-1 0    3 C    1 0 0    4 C    1 0 0
                                     6 C    0-1 0    7 C    0 0 0

   6 C    3     1.4247     2.6924   11 C    0 0 0   14 C    0 0 0   15 C    0 0 0
   6 C    5     2.4677     4.6633    1 C    1 0 0    2 C    1 0 0    3 C    0 0 0
                                     5 C    0 0 0    7 C    0 0 0
   6 C    2     2.8495     5.3847   10 C    0 0 0   12 C    0 0 0
   6 C    6     3.7695     7.1233    8 C    0 0 0    8 C    1 1 0    9 C    0 0 0
                                     9 C    1 0 0   13 C    0 0 0   13 C    0 1 0
   6 C    3     4.2742     8.0771    4 C    0 0 0    4 C    1 0 0    4 C    0-1 0
   6 C    5     4.9354     9.3266    1 C    0 0 0    2 C    0-1 0    3 C    1 1 0
                                     5 C    0 1 0    7 C    0-1 0

   7 C    3     1.4247     2.6924   12 C    0 0 0   13 C    0 1 0   15 C    0 0 0
   7 C    4     2.4677     4.6633    2 C    1 0 0    4 C    0 0 0    5 C    0 1 0
                                     6 C    0 0 0
   7 C    3     2.8495     5.3847    8 C    1 1 0   10 C    0 1 0   11 C    0 0 0
   7 C    4     3.7695     7.1233    9 C    0 0 0    9 C    1 1 0   14 C    0 0 0
                                    14 C    0 1 0
   7 C    6     4.2742     8.0771    1 C    0 0 0    1 C    1 1 0    1 C    1 0 0
                                     3 C    0 0 0    3 C    1 1 0    3 C    0 1 0
   7 C    4     4.9354     9.3266    2 C    0 0 0    4 C    1 0 0    5 C    0 0 0
                                     6 C    0 1 0

   8 C    2     1.4247     2.6924    2 C    0-1 0    3 C    0 0 0
   8 C    5     2.4677     4.6633    9 C    0 0 0   10 C    0 0 0   11 C    0 0 0
                                    13 C   -1 0 0   15 C   -1-1 0
   8 C    2     2.8495     5.3847    4 C    0-1 0    7 C   -1-1 0
   8 C    6     3.7695     7.1233    1 C    0 0 0    1 C    0-1 0    5 C    0 0 0
                                     5 C   -1 0 0    6 C    0 0 0    6 C   -1-1 0
   8 C    6     4.2742     8.0771   12 C    0 0 0   12 C   -1-1 0   12 C    0-1 0
                                    14 C    0 0 0   14 C   -1-1 0   14 C   -1 0 0
   8 C    5     4.9354     9.3266    9 C    0-1 0   10 C   -1 0 0   11 C   -1-1 0
                                    13 C    0 0 0   15 C    0 0 0

   9 C    1     1.4247     2.6924    1 C    0 0 0
   9 C    5     2.4677     4.6633    8 C    0 0 0   11 C    0 0 0   12 C    0 0 0
                                    13 C   -1 0 0   14 C   -1 0 0
   9 C    3     2.8495     5.3847    3 C    0 0 0    4 C    0 0 0    5 C   -1 0 0
   9 C    6     3.7695     7.1233    2 C    0 0 0    2 C    0-1 0    6 C    0 0 0
                                     6 C   -1 0 0    7 C    0 0 0    7 C   -1-1 0
   9 C    6     4.2742     8.0771   10 C    0 0 0   10 C   -1 0 0   10 C    0 1 0
                                    15 C    0 0 0   15 C   -1-1 0   15 C   -1 0 0
   9 C    5     4.9354     9.3266    8 C    0 1 0   11 C   -1 0 0   12 C   -1-1 0
                                    13 C    0 1 0   14 C    0 0 0

  10 C    3     1.4247     2.6924    3 C    0 0 0    4 C    0-1 0    5 C    0 0 0
  10 C    5     2.4677     4.6633    8 C    0 0 0   11 C    0 0 0   12 C    0-1 0
                                    13 C    0 0 0   14 C    0 0 0
  10 C    3     2.8495     5.3847    2 C    0-1 0    6 C    0 0 0    7 C    0-1 0
  10 C    2     3.7695     7.1233    1 C    1 0 0    1 C    0-1 0
  10 C    6     4.2742     8.0771    9 C    0 0 0    9 C    1 0 0    9 C    0-1 0
                                    15 C    0 0 0   15 C   -1-1 0   15 C    0-1 0
  10 C    5     4.9354     9.3266    8 C    1 0 0   11 C    0-1 0   12 C    0 0 0
                                    13 C   -1 0 0   14 C   -1-1 0

  11 C    2     1.4247     2.6924    3 C    0 0 0    6 C    0 0 0
  11 C    6     2.4677     4.6633    8 C    0 0 0    9 C    0 0 0   10 C    0 0 0
                                    12 C    0 0 0   14 C    0 0 0   15 C    0 0 0
  11 C    2     2.8495     5.3847    5 C    0 0 0    7 C    0 0 0
  11 C    6     3.7695     7.1233    1 C    0 0 0    1 C    1 0 0    2 C    1 0 0
                                     2 C    0-1 0    4 C    0 0 0    4 C    0-1 0
  11 C    3     4.2742     8.0771   13 C    0 0 0   13 C   -1 0 0   13 C    0 1 0
  11 C    6     4.9354     9.3266    8 C    1 1 0    9 C    1 0 0   10 C    0 1 0
                                    12 C    0-1 0   14 C   -1 0 0   15 C   -1-1 0

  12 C    2     1.4247     2.6924    4 C    0 0 0    7 C    0 0 0
  12 C    5     2.4677     4.6633    9 C    0 0 0   10 C    0 1 0   11 C    0 0 0
                                    13 C    0 1 0   15 C    0 0 0
  12 C    3     2.8495     5.3847    1 C    0 0 0    5 C    0 1 0    6 C    0 0 0
  12 C    4     3.7695     7.1233    2 C    0 0 0    2 C    1 0 0    3 C    0 0 0
                                     3 C    0 1 0
  12 C    6     4.2742     8.0771    8 C    0 0 0    8 C    1 1 0    8 C    0 1 0
                                    14 C    0 0 0   14 C   -1 0 0   14 C    0 1 0
  12 C    5     4.9354     9.3266    9 C    1 1 0   10 C    0 0 0   11 C    0 1 0
                                    13 C   -1 0 0   15 C   -1 0 0

  13 C    2     1.4247     2.6924    5 C    0 0 0    7 C    0-1 0
  13 C    6     2.4677     4.6633    8 C    1 0 0    9 C    1 0 0   10 C    0 0 0
                                    12 C    0-1 0   14 C    0 0 0   15 C    0-1 0
  13 C    3     2.8495     5.3847    1 C    1 0 0    2 C    1-1 0    4 C    0-1 0
  13 C    4     3.7695     7.1233    3 C    0 0 0    3 C    1 0 0    6 C    0 0 0
                                     6 C    0-1 0
  13 C    3     4.2742     8.0771   11 C    0 0 0   11 C    1 0 0   11 C    0-1 0
  13 C    6     4.9354     9.3266    8 C    0 0 0    9 C    0-1 0   10 C    1 0 0
                                    12 C    1 0 0   14 C    0-1 0   15 C    0 0 0

  14 C    3     1.4247     2.6924    1 C    1 0 0    5 C    0 0 0    6 C    0 0 0
  14 C    5     2.4677     4.6633    9 C    1 0 0   10 C    0 0 0   11 C    0 0 0
                                    13 C    0 0 0   15 C    0 0 0
  14 C    2     2.8495     5.3847    2 C    1 0 0    3 C    0 0 0
  14 C    4     3.7695     7.1233    4 C    1 0 0    4 C    0-1 0    7 C    0 0 0
                                     7 C    0-1 0
  14 C    6     4.2742     8.0771    8 C    0 0 0    8 C    1 1 0    8 C    1 0 0
                                    12 C    0 0 0   12 C    1 0 0   12 C    0-1 0
  14 C    5     4.9354     9.3266    9 C    0 0 0   10 C    1 1 0   11 C    1 0 0
                                    13 C    0 1 0   15 C    0-1 0

  15 C    3     1.4247     2.6924    2 C    1 0 0    6 C    0 0 0    7 C    0 0 0
  15 C    5     2.4677     4.6633    8 C    1 1 0   11 C    0 0 0   12 C    0 0 0
                                    13 C    0 1 0   14 C    0 0 0
  15 C    1     2.8495     5.3847    1 C    1 0 0
  15 C    6     3.7695     7.1233    3 C    0 0 0    3 C    1 1 0    4 C    0 0 0
                                     4 C    1 0 0    5 C    0 0 0    5 C    0 1 0
  15 C    6     4.2742     8.0771    9 C    0 0 0    9 C    1 1 0    9 C    1 0 0
                                    10 C    0 0 0   10 C    1 1 0   10 C    0 1 0
  15 C    5     4.9354     9.3266    8 C    0 0 0   11 C    1 1 0   12 C    1 0 0
                                    13 C    0 0 0   14 C    0 1 0


 SYMMETRY ALLOWED INTERNAL DEGREE(S) OF FREEDOM:  42
 TTTTTTTTTTTTTTTTTTTTTTTTTTTTTT SYMM        TELAPSE        2.45 TCPU        1.09
 TTTTTTTTTTTTTTTTTTTTTTTTTTTTTT INT_SCREEN  TELAPSE        2.46 TCPU        1.09

 *******************************************************************************
 *                             OPTIMIZATION STARTS                             *
 *******************************************************************************
 RECLASIFICATION OF INDICES FOR INTEGRAL CALC ACCORDING TO DIFFERENT CRITERIA:
           FIXDELTE                  FIXDELTX              FIXDELTN
          0.10000000               0.80000000                 42
 DEFAULT MAX NUM OF POINTS  100
 *******************************************************************************

 *******************************************************************************
 COORDINATE OPTIMIZATION - POINT    1
 INFORMATION **** EXCBUF **** EXCH. BIPO BUFFER: WORDS USED =           0

 DFT PARAMETERS

     ATOM       ELECTRONS   NET CHARGE   R(ANGSTROM)
   1   6  C       6.0000      0.0000     0.77000000

 SIZE OF GRID=     504396
 TTTTTTTTTTTTTTTTTTTTTTTTTTTTTT MAKE_GRID2  TELAPSE        2.81 TCPU        1.44
 BECKE WEIGHT FUNCTION
 RADSAFE =     2.00
 TOLERANCES - DENSITY:10**- 6; POTENTIAL:10**- 9; GRID WGT:10**-14

 RADIAL INTEGRATION  - INTERVALS (POINTS,UPPER LIMIT):            1( 75,  4.0*R)

 ANGULAR INTEGRATION - INTERVALS (ACCURACY LEVEL [N. POINTS] UPPER LIMIT):
  1(  4[  86]   0.2)  2(  8[ 194]   0.5)  3( 12[ 350]   0.9)  4( 16[ 974]   3.5)
  5( 12[ 350]9999.0)
 TTTTTTTTTTTTTTTTTTTTTTTTTTTTTT INT_CALC    TELAPSE        2.83 TCPU        1.46

 *******************************************************************************
 Final                                                                           
 CRYSTAL - SCF - TYPE OF CALCULATION :  RESTRICTED CLOSED SHELL
 *******************************************************************************

 CAPPA:IS1  8;IS2  8;IS3  8; K PTS MONK NET 260; SYMMOPS:K SPACE   2;G SPACE   1

 TTTTTTTTTTTTTTTTTTTTTTTTTTTTTT SDIK        TELAPSE        2.89 TCPU        1.52

 AAAAAAAAAAAAAAAAAAAAAAAAAAAAAAAAAAAAAAAAAAAAAAAAAAAAAAAAAAAAAAAAAAAAAAAAAAAAAAA
         ATOMIC WAVEFUNCTION(S)


 NUCLEAR CHARGE  6.0  SYMMETRY SPECIES            S    P
 N. ELECTRONS    6.0  NUMBER OF PRIMITIVE GTOS   10    6
                      NUMBER OF CONTRACTED GTOS   4    3
                      NUMBER OF CLOSED SHELLS     2    0
                      OPEN SHELL OCCUPATION       0    2

  ZNUC SCFIT  TOTAL HF ENERGY   KINETIC ENERGY   VIRIAL THEOREM ACCURACY
   6.0  10   -3.768111494E+01  3.771190961E+01 -1.999183423E+00  3.4E-06

 AAAAAAAAAAAAAAAAAAAAAAAAAAAAAAAAAAAAAAAAAAAAAAAAAAAAAAAAAAAAAAAAAAAAAAAAAAAAAAA

 CHARGE NORMALIZATION FACTOR   1.00000000
 TOTAL ATOMIC CHARGES:
   6.0000000   6.0000000   6.0000000   6.0000000   6.0000000   6.0000000
   6.0000000   6.0000000   6.0000000   6.0000000   6.0000000   6.0000000
   6.0000000   6.0000000   6.0000000
 TTTTTTTTTTTTTTTTTTTTTTTTTTTTTT MOQGAD      TELAPSE        2.90 TCPU        1.53
 TTTTTTTTTTTTTTTTTTTTTTTTTTTTTT SHELLXN     TELAPSE        3.51 TCPU        2.13
 TTTTTTTTTTTTTTTTTTTTTTTTTTTTTT MONMO3      TELAPSE        3.61 TCPU        2.24
 NUMERICALLY INTEGRATED DENSITY     89.9998076035
 TTTTTTTTTTTTTTTTTTTTTTTTTTTTTT NUMDFT      TELAPSE        3.76 TCPU        2.39
 CYC   0 ETOT(AU) -5.736270086166E+02 DETOT -5.74E+02 tst  0.00E+00 PX  1.00E+00
 TTTTTTTTTTTTTTTTTTTTTTTTTTTTTT DIIS        TELAPSE        3.77 TCPU        2.40
 TTTTTTTTTTTTTTTTTTTTTTTTTTTTTT FDIK        TELAPSE        3.93 TCPU        2.56
 POSSIBLY CONDUCTING STATE - EFERMI(AU) -2.3378260E-01 (RES. CHARGE  2.60E-11;IT. 14)
 TTTTTTTTTTTTTTTTTTTTTTTTTTTTTT PDIG        TELAPSE        4.02 TCPU        2.64
 CHARGE NORMALIZATION FACTOR   1.00000000
 TOTAL ATOMIC CHARGES:
   6.2559967   6.1432975   6.0542341   5.9083409   6.0739702   6.0906816
   6.1037783   5.9049602   5.9063666   6.0090364   5.6942160   6.0027567
   6.0111246   5.9016472   5.9395929
 TTTTTTTTTTTTTTTTTTTTTTTTTTTTTT MOQGAD      TELAPSE        4.02 TCPU        2.64
 TTTTTTTTTTTTTTTTTTTTTTTTTTTTTT SHELLXN     TELAPSE        4.73 TCPU        3.35
 TTTTTTTTTTTTTTTTTTTTTTTTTTTTTT MONMO3      TELAPSE        4.83 TCPU        3.45
 NUMERICALLY INTEGRATED DENSITY     89.9998510304
 TTTTTTTTTTTTTTTTTTTTTTTTTTTTTT NUMDFT      TELAPSE        5.09 TCPU        3.71
 CYC   1 ETOT(AU) -5.703469823900E+02 DETOT  3.28E+00 tst  0.00E+00 PX  1.00E+00
 TTTTTTTTTTTTTTTTTTTTTTTTTTTTTT DIIS        TELAPSE        5.10 TCPU        3.73
 DIIS TEST: 0.67721E+00 AT SCF   CYCLE   1 - MIX   30 %
 TTTTTTTTTTTTTTTTTTTTTTTTTTTTTT FDIK        TELAPSE        5.27 TCPU        3.89
 POSSIBLY CONDUCTING STATE - EFERMI(AU) -1.8830042E-01 (RES. CHARGE  2.27E-13;IT. 10)
 TTTTTTTTTTTTTTTTTTTTTTTTTTTTTT PDIG        TELAPSE        5.37 TCPU        3.99
 CHARGE NORMALIZATION FACTOR   1.00000000
 TOTAL ATOMIC CHARGES:
   5.4189961   5.6964634   5.8337073   5.9718994   5.7818781   5.9131787
   5.7965544   6.2027434   6.8391055   5.8888790   7.0321218   6.0939032
   5.7056897   5.9251999   5.8996800
 TTTTTTTTTTTTTTTTTTTTTTTTTTTTTT MOQGAD      TELAPSE        5.37 TCPU        3.99
 TTTTTTTTTTTTTTTTTTTTTTTTTTTTTT SHELLXN     TELAPSE        6.07 TCPU        4.69
 TTTTTTTTTTTTTTTTTTTTTTTTTTTTTT MONMO3      TELAPSE        6.18 TCPU        4.79
 NUMERICALLY INTEGRATED DENSITY     89.9998210207
 TTTTTTTTTTTTTTTTTTTTTTTTTTTTTT NUMDFT      TELAPSE        6.43 TCPU        5.05
 CYC   2 ETOT(AU) -5.699045070903E+02 DETOT  4.42E-01 tst  6.85E-02 PX  2.40E-01
 TTTTTTTTTTTTTTTTTTTTTTTTTTTTTT DIIS        TELAPSE        6.45 TCPU        5.06
 DIIS TEST: 0.48212E+01 AT SCF   CYCLE   2 - DIIS ACTIVE - HISTORY:     2 CYCLES
 TTTTTTTTTTTTTTTTTTTTTTTTTTTTTT FDIK        TELAPSE        6.63 TCPU        5.24
 POSSIBLY CONDUCTING STATE - EFERMI(AU) -1.6084390E-01 (RES. CHARGE  5.06E-11;IT.  8)
 TTTTTTTTTTTTTTTTTTTTTTTTTTTTTT PDIG        TELAPSE        6.72 TCPU        5.33
 CHARGE NORMALIZATION FACTOR   1.00000000
 TOTAL ATOMIC CHARGES:
   6.1908693   6.3102691   5.8492475   6.4725745   5.9190635   5.9208540
   5.9047502   5.9512821   5.7049061   5.9737426   5.5250580   5.9547003
   6.2922639   6.0350980   5.9953209
 TTTTTTTTTTTTTTTTTTTTTTTTTTTTTT MOQGAD      TELAPSE        6.72 TCPU        5.33
 TTTTTTTTTTTTTTTTTTTTTTTTTTTTTT SHELLXN     TELAPSE        7.43 TCPU        6.04
 TTTTTTTTTTTTTTTTTTTTTTTTTTTTTT MONMO3      TELAPSE        7.53 TCPU        6.14
 NUMERICALLY INTEGRATED DENSITY     89.9998172754
 TTTTTTTTTTTTTTTTTTTTTTTTTTTTTT NUMDFT      TELAPSE        7.89 TCPU        6.50
 CYC   3 ETOT(AU) -5.702444777619E+02 DETOT -3.40E-01 tst  8.91E-02 PX  2.81E-01
 TTTTTTTTTTTTTTTTTTTTTTTTTTTTTT DIIS        TELAPSE        7.91 TCPU        6.53
 DIIS TEST: 0.15668E+01 AT SCF   CYCLE   3 - DIIS ACTIVE - HISTORY:     3 CYCLES
 TTTTTTTTTTTTTTTTTTTTTTTTTTTTTT FDIK        TELAPSE        8.08 TCPU        6.69
 POSSIBLY CONDUCTING STATE - EFERMI(AU) -1.7168988E-01 (RES. CHARGE  1.29E-12;IT. 14)
 TTTTTTTTTTTTTTTTTTTTTTTTTTTTTT PDIG        TELAPSE        8.17 TCPU        6.78
 CHARGE NORMALIZATION FACTOR   1.00000000
 TOTAL ATOMIC CHARGES:
   6.0715433   5.9681474   5.9966576   5.3959611   6.0382783   6.0540836
   6.0521718   6.0150479   6.0905102   6.0234781   5.9686488   6.0779686
   6.1465123   6.0358210   6.0651700
 TTTTTTTTTTTTTTTTTTTTTTTTTTTTTT MOQGAD      TELAPSE        8.17 TCPU        6.78
 TTTTTTTTTTTTTTTTTTTTTTTTTTTTTT SHELLXN     TELAPSE        8.87 TCPU        7.48
 TTTTTTTTTTTTTTTTTTTTTTTTTTTTTT MONMO3      TELAPSE        8.98 TCPU        7.59
 NUMERICALLY INTEGRATED DENSITY     89.9998191006
 TTTTTTTTTTTTTTTTTTTTTTTTTTTTTT NUMDFT      TELAPSE        9.23 TCPU        7.84
 CYC   4 ETOT(AU) -5.703620912094E+02 DETOT -1.18E-01 tst  3.27E-02 PX  1.65E-01
 TTTTTTTTTTTTTTTTTTTTTTTTTTTTTT DIIS        TELAPSE        9.25 TCPU        7.86
 DIIS TEST: 0.68814E+00 AT SCF   CYCLE   4 - DIIS ACTIVE - HISTORY:     4 CYCLES
 TTTTTTTTTTTTTTTTTTTTTTTTTTTTTT FDIK        TELAPSE        9.41 TCPU        8.02
 POSSIBLY CONDUCTING STATE - EFERMI(AU) -1.7496610E-01 (RES. CHARGE  2.49E-10;IT. 18)
 TTTTTTTTTTTTTTTTTTTTTTTTTTTTTT PDIG        TELAPSE        9.51 TCPU        8.12
 CHARGE NORMALIZATION FACTOR   1.00000000
 TOTAL ATOMIC CHARGES:
   6.1211642   6.0383090   6.0265931   6.0336306   6.0142293   6.0404768
   6.0401152   5.9505127   6.1086184   6.0297310   5.9362996   6.1169155
   5.7185903   5.9070894   5.9177247
 TTTTTTTTTTTTTTTTTTTTTTTTTTTTTT MOQGAD      TELAPSE        9.51 TCPU        8.12
 TTTTTTTTTTTTTTTTTTTTTTTTTTTTTT SHELLXN     TELAPSE       10.22 TCPU        8.82
 TTTTTTTTTTTTTTTTTTTTTTTTTTTTTT MONMO3      TELAPSE       10.32 TCPU        8.93
 NUMERICALLY INTEGRATED DENSITY     89.9998244430
 TTTTTTTTTTTTTTTTTTTTTTTTTTTTTT NUMDFT      TELAPSE       10.58 TCPU        9.18
 CYC   5 ETOT(AU) -5.704245077918E+02 DETOT -6.24E-02 tst  5.31E-03 PX  7.85E-02
 TTTTTTTTTTTTTTTTTTTTTTTTTTTTTT DIIS        TELAPSE       10.60 TCPU        9.20
 DIIS TEST: 0.17444E+00 AT SCF   CYCLE   5 - DIIS ACTIVE - HISTORY:     5 CYCLES
 TTTTTTTTTTTTTTTTTTTTTTTTTTTTTT FDIK        TELAPSE       10.77 TCPU        9.38
 POSSIBLY CONDUCTING STATE - EFERMI(AU) -1.8105902E-01 (RES. CHARGE  8.74E-13;IT. 12)
 TTTTTTTTTTTTTTTTTTTTTTTTTTTTTT PDIG        TELAPSE       10.87 TCPU        9.47
 CHARGE NORMALIZATION FACTOR   1.00000000
 TOTAL ATOMIC CHARGES:
   5.9416331   6.0619585   5.9773067   5.8809671   5.9901163   6.0192878
   6.0137994   6.0324887   6.0652643   5.9849265   6.0137955   5.9285395
   6.1913189   5.9347657   5.9638321
 TTTTTTTTTTTTTTTTTTTTTTTTTTTTTT MOQGAD      TELAPSE       10.87 TCPU        9.47
 TTTTTTTTTTTTTTTTTTTTTTTTTTTTTT SHELLXN     TELAPSE       11.58 TCPU       10.18
 TTTTTTTTTTTTTTTTTTTTTTTTTTTTTT MONMO3      TELAPSE       11.68 TCPU       10.28
 NUMERICALLY INTEGRATED DENSITY     89.9998246659
 TTTTTTTTTTTTTTTTTTTTTTTTTTTTTT NUMDFT      TELAPSE       11.94 TCPU       10.54
 CYC   6 ETOT(AU) -5.704297115935E+02 DETOT -5.20E-03 tst  1.69E-03 PX  6.43E-02
 TTTTTTTTTTTTTTTTTTTTTTTTTTTTTT DIIS        TELAPSE       11.95 TCPU       10.55
 DIIS TEST: 0.13210E+00 AT SCF   CYCLE   6 - DIIS ACTIVE - HISTORY:     6 CYCLES
 TTTTTTTTTTTTTTTTTTTTTTTTTTTTTT FDIK        TELAPSE       12.14 TCPU       10.73
 POSSIBLY CONDUCTING STATE - EFERMI(AU) -1.8243989E-01 (RES. CHARGE  4.83E-13;IT. 20)
 TTTTTTTTTTTTTTTTTTTTTTTTTTTTTT PDIG        TELAPSE       12.24 TCPU       10.83
 CHARGE NORMALIZATION FACTOR   1.00000000
 TOTAL ATOMIC CHARGES:
   6.1162550   6.0540329   5.9289514   5.9188345   5.9669039   6.0192111
   5.9852901   5.9175194   6.1431907   5.9520100   5.9700683   6.0679066
   5.9776223   6.0056862   5.9765177
 TTTTTTTTTTTTTTTTTTTTTTTTTTTTTT MOQGAD      TELAPSE       12.24 TCPU       10.83
 TTTTTTTTTTTTTTTTTTTTTTTTTTTTTT SHELLXN     TELAPSE       12.95 TCPU       11.54
 TTTTTTTTTTTTTTTTTTTTTTTTTTTTTT MONMO3      TELAPSE       13.06 TCPU       11.64
 NUMERICALLY INTEGRATED DENSITY     89.9998259336
 TTTTTTTTTTTTTTTTTTTTTTTTTTTTTT NUMDFT      TELAPSE       13.31 TCPU       11.90
 CYC   7 ETOT(AU) -5.704391700187E+02 DETOT -9.46E-03 tst  7.60E-04 PX  3.36E-02
 TTTTTTTTTTTTTTTTTTTTTTTTTTTTTT DIIS        TELAPSE       13.33 TCPU       11.91
 DIIS TEST: 0.59911E-01 AT SCF   CYCLE   7 - DIIS ACTIVE - HISTORY:     7 CYCLES
 TTTTTTTTTTTTTTTTTTTTTTTTTTTTTT FDIK        TELAPSE       13.51 TCPU       12.09
 POSSIBLY CONDUCTING STATE - EFERMI(AU) -1.8255504E-01 (RES. CHARGE  9.31E-13;IT.  8)
 TTTTTTTTTTTTTTTTTTTTTTTTTTTTTT PDIG        TELAPSE       13.61 TCPU       12.19
 CHARGE NORMALIZATION FACTOR   1.00000000
 TOTAL ATOMIC CHARGES:
   6.0249032   6.0483680   5.9650070   5.9698124   5.9729761   6.0137069
   5.9928233   6.0296205   6.0247891   5.9971967   5.9865077   6.0469086
   5.9692817   5.9635640   5.9945347
 TTTTTTTTTTTTTTTTTTTTTTTTTTTTTT MOQGAD      TELAPSE       13.61 TCPU       12.19
 TTTTTTTTTTTTTTTTTTTTTTTTTTTTTT SHELLXN     TELAPSE       14.31 TCPU       12.89
 TTTTTTTTTTTTTTTTTTTTTTTTTTTTTT MONMO3      TELAPSE       14.42 TCPU       13.00
 NUMERICALLY INTEGRATED DENSITY     89.9998254490
 TTTTTTTTTTTTTTTTTTTTTTTTTTTTTT NUMDFT      TELAPSE       14.67 TCPU       13.25
 CYC   8 ETOT(AU) -5.704453858140E+02 DETOT -6.22E-03 tst  2.18E-04 PX  1.80E-02
 TTTTTTTTTTTTTTTTTTTTTTTTTTTTTT DIIS        TELAPSE       14.69 TCPU       13.27
 DIIS TEST: 0.11238E-01 AT SCF   CYCLE   8 - DIIS ACTIVE - HISTORY:     8 CYCLES
 TTTTTTTTTTTTTTTTTTTTTTTTTTTTTT FDIK        TELAPSE       14.87 TCPU       13.45
 POSSIBLY CONDUCTING STATE - EFERMI(AU) -1.8198954E-01 (RES. CHARGE  2.04E-12;IT. 16)
 TTTTTTTTTTTTTTTTTTTTTTTTTTTTTT PDIG        TELAPSE       14.97 TCPU       13.55
 CHARGE NORMALIZATION FACTOR   1.00000000
 TOTAL ATOMIC CHARGES:
   6.0520117   6.0518854   5.9682786   5.9849248   5.9814898   6.0107924
   5.9957805   5.9815540   6.0999400   5.9933013   5.9523010   6.0272335
   5.9951850   5.9563573   5.9489648
 TTTTTTTTTTTTTTTTTTTTTTTTTTTTTT MOQGAD      TELAPSE       14.97 TCPU       13.55
 TTTTTTTTTTTTTTTTTTTTTTTTTTTTTT SHELLXN     TELAPSE       15.68 TCPU       14.25
 TTTTTTTTTTTTTTTTTTTTTTTTTTTTTT MONMO3      TELAPSE       15.78 TCPU       14.36
 NUMERICALLY INTEGRATED DENSITY     89.9998260978
 TTTTTTTTTTTTTTTTTTTTTTTTTTTTTT NUMDFT      TELAPSE       16.15 TCPU       14.72
 CYC   9 ETOT(AU) -5.704466939979E+02 DETOT -1.31E-03 tst  2.62E-05 PX  1.28E-02
 TTTTTTTTTTTTTTTTTTTTTTTTTTTTTT DIIS        TELAPSE       16.17 TCPU       14.75
 DIIS TEST: 0.25641E-02 AT SCF   CYCLE   9 - DIIS ACTIVE - HISTORY:     9 CYCLES
 TTTTTTTTTTTTTTTTTTTTTTTTTTTTTT FDIK        TELAPSE       16.36 TCPU       14.93
 POSSIBLY CONDUCTING STATE - EFERMI(AU) -1.8173707E-01 (RES. CHARGE  2.92E-12;IT. 12)
 TTTTTTTTTTTTTTTTTTTTTTTTTTTTTT PDIG        TELAPSE       16.45 TCPU       15.03
 CHARGE NORMALIZATION FACTOR   1.00000000
 TOTAL ATOMIC CHARGES:
   6.0438610   6.0721875   5.9687241   5.9719137   5.9813208   6.0183143
   6.0039593   5.9706322   6.0691267   5.9891849   5.9744104   6.0206048
   6.0036463   5.9507536   5.9613605
 TTTTTTTTTTTTTTTTTTTTTTTTTTTTTT MOQGAD      TELAPSE       16.45 TCPU       15.03
 TTTTTTTTTTTTTTTTTTTTTTTTTTTTTT SHELLXN     TELAPSE       17.16 TCPU       15.74
 TTTTTTTTTTTTTTTTTTTTTTTTTTTTTT MONMO3      TELAPSE       17.26 TCPU       15.84
 NUMERICALLY INTEGRATED DENSITY     89.9998257894
 TTTTTTTTTTTTTTTTTTTTTTTTTTTTTT NUMDFT      TELAPSE       17.63 TCPU       16.21
 CYC  10 ETOT(AU) -5.704469717798E+02 DETOT -2.78E-04 tst  1.13E-05 PX  4.05E-03
 TTTTTTTTTTTTTTTTTTTTTTTTTTTTTT DIIS        TELAPSE       17.66 TCPU       16.24
 DIIS TEST: 0.79636E-03 AT SCF   CYCLE  10 - DIIS ACTIVE - HISTORY:    10 CYCLES
 TTTTTTTTTTTTTTTTTTTTTTTTTTTTTT FDIK        TELAPSE       17.83 TCPU       16.40
 POSSIBLY CONDUCTING STATE - EFERMI(AU) -1.8161436E-01 (RES. CHARGE  3.72E-12;IT. 12)
 TTTTTTTTTTTTTTTTTTTTTTTTTTTTTT PDIG        TELAPSE       17.93 TCPU       16.50
 CHARGE NORMALIZATION FACTOR   1.00000000
 TOTAL ATOMIC CHARGES:
   6.0437145   6.0611883   5.9684515   5.9693656   5.9818349   6.0173531
   6.0036766   5.9922321   6.0706553   5.9884464   5.9574531   6.0240304
   6.0012853   5.9539724   5.9663404
 TTTTTTTTTTTTTTTTTTTTTTTTTTTTTT MOQGAD      TELAPSE       17.93 TCPU       16.50
 TTTTTTTTTTTTTTTTTTTTTTTTTTTTTT SHELLXN     TELAPSE       18.63 TCPU       17.20
 TTTTTTTTTTTTTTTTTTTTTTTTTTTTTT MONMO3      TELAPSE       18.74 TCPU       17.31
 NUMERICALLY INTEGRATED DENSITY     89.9998256278
 TTTTTTTTTTTTTTTTTTTTTTTTTTTTTT NUMDFT      TELAPSE       19.09 TCPU       17.66
 CYC  11 ETOT(AU) -5.704470425693E+02 DETOT -7.08E-05 tst  3.61E-06 PX  3.80E-03
 TTTTTTTTTTTTTTTTTTTTTTTTTTTTTT DIIS        TELAPSE       19.11 TCPU       17.68
 DIIS TEST: 0.19349E-03 AT SCF   CYCLE  11 - DIIS ACTIVE - HISTORY:    11 CYCLES
 TTTTTTTTTTTTTTTTTTTTTTTTTTTTTT FDIK        TELAPSE       19.28 TCPU       17.84
 POSSIBLY CONDUCTING STATE - EFERMI(AU) -1.8163023E-01 (RES. CHARGE  1.76E-11;IT.  8)
 TTTTTTTTTTTTTTTTTTTTTTTTTTTTTT PDIG        TELAPSE       19.37 TCPU       17.94
 CHARGE NORMALIZATION FACTOR   1.00000000
 TOTAL ATOMIC CHARGES:
   6.0456529   6.0592938   5.9684506   5.9743946   5.9821490   6.0162043
   6.0009295   5.9862850   6.0673190   5.9906511   5.9620146   6.0240445
   6.0043617   5.9561139   5.9621355
 TTTTTTTTTTTTTTTTTTTTTTTTTTTTTT MOQGAD      TELAPSE       19.37 TCPU       17.94
 TTTTTTTTTTTTTTTTTTTTTTTTTTTTTT SHELLXN     TELAPSE       20.08 TCPU       18.64
 TTTTTTTTTTTTTTTTTTTTTTTTTTTTTT MONMO3      TELAPSE       20.18 TCPU       18.75
 NUMERICALLY INTEGRATED DENSITY     89.9998257205
 TTTTTTTTTTTTTTTTTTTTTTTTTTTTTT NUMDFT      TELAPSE       20.44 TCPU       19.00
 CYC  12 ETOT(AU) -5.704470642377E+02 DETOT -2.17E-05 tst  1.27E-06 PX  1.39E-03
 TTTTTTTTTTTTTTTTTTTTTTTTTTTTTT DIIS        TELAPSE       20.46 TCPU       19.02
 DIIS TEST: 0.55253E-04 AT SCF   CYCLE  12 - DIIS ACTIVE - HISTORY:    12 CYCLES
 TTTTTTTTTTTTTTTTTTTTTTTTTTTTTT FDIK        TELAPSE       20.64 TCPU       19.20
 POSSIBLY CONDUCTING STATE - EFERMI(AU) -1.8166674E-01 (RES. CHARGE  6.98E-12;IT. 10)
 TTTTTTTTTTTTTTTTTTTTTTTTTTTTTT PDIG        TELAPSE       20.74 TCPU       19.30
 CHARGE NORMALIZATION FACTOR   1.00000000
 TOTAL ATOMIC CHARGES:
   6.0448352   6.0627573   5.9683505   5.9735505   5.9811765   6.0154179
   6.0005843   5.9862630   6.0712657   5.9910027   5.9605186   6.0240388
   6.0027037   5.9551227   5.9624126
 TTTTTTTTTTTTTTTTTTTTTTTTTTTTTT MOQGAD      TELAPSE       20.74 TCPU       19.30
 TTTTTTTTTTTTTTTTTTTTTTTTTTTTTT SHELLXN     TELAPSE       21.44 TCPU       20.00
 TTTTTTTTTTTTTTTTTTTTTTTTTTTTTT MONMO3      TELAPSE       21.55 TCPU       20.11
 NUMERICALLY INTEGRATED DENSITY     89.9998257219
 TTTTTTTTTTTTTTTTTTTTTTTTTTTTTT NUMDFT      TELAPSE       21.80 TCPU       20.36
 CYC  13 ETOT(AU) -5.704470706931E+02 DETOT -6.46E-06 tst  3.67E-07 PX  4.91E-04
 TTTTTTTTTTTTTTTTTTTTTTTTTTTTTT DIIS        TELAPSE       21.82 TCPU       20.39
 DIIS TEST: 0.58685E-05 AT SCF   CYCLE  13 - DIIS ACTIVE - HISTORY:    13 CYCLES
 TTTTTTTTTTTTTTTTTTTTTTTTTTTTTT FDIK        TELAPSE       22.01 TCPU       20.56
 POSSIBLY CONDUCTING STATE - EFERMI(AU) -1.8167751E-01 (RES. CHARGE  5.47E-13;IT.  8)
 TTTTTTTTTTTTTTTTTTTTTTTTTTTTTT PDIG        TELAPSE       22.10 TCPU       20.66
 CHARGE NORMALIZATION FACTOR   1.00000000
 TOTAL ATOMIC CHARGES:
   6.0452547   6.0617604   5.9681964   5.9758027   5.9812614   6.0155775
   6.0010077   5.9854876   6.0713223   5.9905670   5.9601050   6.0239206
   6.0029662   5.9547116   5.9620590
 TTTTTTTTTTTTTTTTTTTTTTTTTTTTTT MOQGAD      TELAPSE       22.10 TCPU       20.66
 TTTTTTTTTTTTTTTTTTTTTTTTTTTTTT SHELLXN     TELAPSE       22.81 TCPU       21.36
 TTTTTTTTTTTTTTTTTTTTTTTTTTTTTT MONMO3      TELAPSE       22.91 TCPU       21.47
 NUMERICALLY INTEGRATED DENSITY     89.9998257468
 TTTTTTTTTTTTTTTTTTTTTTTTTTTTTT NUMDFT      TELAPSE       23.28 TCPU       21.83
 CYC  14 ETOT(AU) -5.704470716820E+02 DETOT -9.89E-07 tst  3.18E-08 PX  3.87E-04
 TTTTTTTTTTTTTTTTTTTTTTTTTTTTTT DIIS        TELAPSE       23.31 TCPU       21.86
 DIIS TEST: 0.97793E-06 AT SCF   CYCLE  14 - DIIS ACTIVE - HISTORY:    14 CYCLES
 TTTTTTTTTTTTTTTTTTTTTTTTTTTTTT FDIK        TELAPSE       23.47 TCPU       22.02
 POSSIBLY CONDUCTING STATE - EFERMI(AU) -1.8167653E-01 (RES. CHARGE  3.63E-11;IT.  6)
 TTTTTTTTTTTTTTTTTTTTTTTTTTTTTT PDIG        TELAPSE       23.57 TCPU       22.12
 CHARGE NORMALIZATION FACTOR   1.00000000
 TOTAL ATOMIC CHARGES:
   6.0454483   6.0619929   5.9682825   5.9755547   5.9813829   6.0156824
   6.0009507   5.9857227   6.0712798   5.9904982   5.9603003   6.0234497
   6.0026849   5.9547933   5.9619767
 TTTTTTTTTTTTTTTTTTTTTTTTTTTTTT MOQGAD      TELAPSE       23.57 TCPU       22.12
 TTTTTTTTTTTTTTTTTTTTTTTTTTTTTT SHELLXN     TELAPSE       24.27 TCPU       22.82
 TTTTTTTTTTTTTTTTTTTTTTTTTTTTTT MONMO3      TELAPSE       24.38 TCPU       22.93
 NUMERICALLY INTEGRATED DENSITY     89.9998257422
 TTTTTTTTTTTTTTTTTTTTTTTTTTTTTT NUMDFT      TELAPSE       24.64 TCPU       23.19
 CYC  15 ETOT(AU) -5.704470716827E+02 DETOT -7.76E-10 tst  2.36E-09 PX  5.39E-05
 TTTTTTTTTTTTTTTTTTTTTTTTTTTTTT DIIS        TELAPSE       24.66 TCPU       23.21
 DIIS TEST: 0.36569E-06 AT SCF   CYCLE  15 - DIIS ACTIVE - HISTORY:    15 CYCLES
 TTTTTTTTTTTTTTTTTTTTTTTTTTTTTT FDIK        TELAPSE       24.84 TCPU       23.39
 POSSIBLY CONDUCTING STATE - EFERMI(AU) -1.8167431E-01 (RES. CHARGE  5.59E-10;IT.  6)
 TTTTTTTTTTTTTTTTTTTTTTTTTTTTTT PDIG        TELAPSE       24.93 TCPU       23.48
 CHARGE NORMALIZATION FACTOR   1.00000000
 TOTAL ATOMIC CHARGES:
   6.0452494   6.0620669   5.9682815   5.9753245   5.9813761   6.0156516
   6.0009709   5.9856863   6.0712062   5.9905341   5.9602618   6.0238201
   6.0027882   5.9547775   5.9620049
 TTTTTTTTTTTTTTTTTTTTTTTTTTTTTT MOQGAD      TELAPSE       24.93 TCPU       23.48
 TTTTTTTTTTTTTTTTTTTTTTTTTTTTTT SHELLXN     TELAPSE       25.64 TCPU       24.19
 +++ ENERGIES IN A.U. +++
 ::: EXT EL-POLE                                  -8.0276353432984E+02
 ::: EXT EL-SPHEROPOLE                             6.2454879105879E+00
 ::: BIELET ZONE E-E                               1.1937468247140E+03
 ::: TOTAL E-E                                     3.9722877829479E+02
 ::: TOTAL E-N + N-E                              -1.5733379365861E+03
 ::: TOTAL N-N                                     1.1876001574264E+02
 ::: KINETIC ENERGY                                5.6705118734371E+02
 ::: PSEUDO TOTAL   ENERGY                        -4.9029795520498E+02
 ::: VIRIAL COEFFICIENT                            1.0725902438940E+00
 TTTTTTTTTTTTTTTTTTTTTTTTTTTTTT MONMO3      TELAPSE       25.74 TCPU       24.29
 NUMERICALLY INTEGRATED DENSITY     89.9998257406
 TTTTTTTTTTTTTTTTTTTTTTTTTTTTTT NUMDFT      TELAPSE       26.00 TCPU       24.54
 CYC  16 ETOT(AU) -5.704470717348E+02 DETOT -5.21E-08 tst  9.78E-10 PX  5.39E-05

 == SCF ENDED - CONVERGENCE ON ENERGY      E(AU) -5.7044707173485E+02 CYCLES  16


 ENERGY EXPRESSION=HARTREE+FOCK EXCH*0.00000+(PBE        EXCH)*1.00000+PBE        CORR


 TOTAL ENERGY(DFT)(AU)( 16) -5.7044707173485E+02 DE-5.2E-08 tester 9.8E-10
 TTTTTTTTTTTTTTTTTTTTTTTTTTTTTT EDFT        TELAPSE       26.00 TCPU       24.55

 *******************************************************************************
 *                             FORCE CALCULATION                               *
 *******************************************************************************

 TTTTTTTTTTTTTTTTTTTTTTTTTTTTTT NUMDFG      TELAPSE       26.63 TCPU       25.18
 INFORMATION **** EXCPOG **** EXCH. BIPO BUFFER LENGTH (WORDS) =           0
 INFORMATION **** GENPOG **** BIPO BUFFER LENGTH (WORDS) =     1108500
 TTTTTTTTTTTTTTTTTTTTTTTTTTTTTT SHELXG      TELAPSE       29.03 TCPU       27.58

 CARTESIAN FORCES IN HARTREE/BOHR (ANALYTICAL)
   ATOM                     X                   Y                   Z
   1   6            -1.643902219225E-02 -9.776760894892E-02  2.726119815009E-09
   2   6             4.214093958706E-02  7.222298679990E-02  3.920025926173E-10
   3   6             1.308824899697E-02  7.026990548162E-02 -9.198308884708E-10
   4   6             1.969095408347E-02 -7.496237814381E-02  7.098991674581E-09
   5   6            -2.531733502802E-03 -2.858167623949E-02  8.612682127932E-09
   6   6            -2.023178233880E-02  3.248735472114E-02 -4.566439573573E-09
   7   6             1.190835357637E-02  1.591183063793E-02  3.348475889841E-09
   8   6            -5.466542327495E-02 -6.634252069661E-02  2.451461862444E-10
   9   6            -1.400832137050E-02  7.343449024858E-02  1.930551667902E-09
  10   6            -3.102519290425E-02 -1.008287803179E-02 -1.526441393724E-09
  11   6             4.733267972742E-03 -2.460591191815E-02 -1.310028957399E-08
  12   6             2.588951812060E-02  6.536893746416E-02  2.316571006087E-09
  13   6            -2.202201605571E-02  1.985273788353E-02 -5.413642463294E-09
  14   6             2.033230059567E-02  4.027226274838E-04 -1.252420219817E-09
  15   6             2.313990870647E-02 -4.760799188568E-02  1.083713981737E-10

 RESULTANT FORCE     9.281464485866E-14 -1.076222444496E-13 -1.517544770380E-13

 SYMMETRY ALLOWED FORCES (ANALYTICAL) (DIRECTION, FORCE)

    1  7.9132980E-02    2 -6.5335837E-02    3  2.8218126E-09    4 -3.7375338E-02
    5  7.0668652E-02    6  6.0888501E-10    7 -5.3728995E-02    8  4.9126711E-02
    9 -7.0772860E-10   10  7.6406118E-02   11 -1.6466350E-02   12  7.6060049E-09
   13  2.9917668E-02   14 -1.3900496E-02   15  9.9195329E-09   16 -3.2001661E-02
   17  6.6076886E-04   18 -2.9255578E-09   19 -3.5084726E-03   20  2.1470863E-02
   21  5.1241625E-09   22  3.6589317E-02   23 -8.1256471E-02   24  2.4926551E-09
   25 -6.6542373E-02   26  1.9692560E-02   27  4.6987162E-09   28 -8.8229889E-03
   29 -3.8587418E-02   30  1.7726498E-09   31  2.3245544E-02   32 -2.0755384E-02
   33 -1.0768912E-08   34 -4.7750414E-02   35  4.6308168E-02   36  3.8992518E-09
   37 -4.8591767E-02   38 -1.3201082E-02   39 -3.9531646E-09   40 -3.0393078E-02
   41  1.5255049E-02   42 -9.6222498E-10
 TTTTTTTTTTTTTTTTTTTTTTTTTTTTTT TOTGRA      TELAPSE       29.52 TCPU       28.07
 INFORMATION **** opta001 **** GEOMETRY OUTPUT FILE
 CLASSICAL MODEL (SCHLEGEL) USED AS INITIAL HESSIAN MATRIX
 REFERENCE GEOMETRY DEFINED

 MAX GRADIENT      0.081256  THRESHOLD              0.000450 CONVERGED NO
 RMS GRADIENT      0.035966  THRESHOLD              0.000300 CONVERGED NO

 GRADIENT NORM     0.233085  GRADIENT THRESHOLD     0.500000

 EIGENVALUES OF THE ESTIMATED HESSIAN
  0.7890E-03  0.1182E-02  0.2418E-02  0.3601E-02  0.3731E-02  0.5991E-02
  0.1020E-01  0.1335E-01  0.1552E-01  0.2250E-01  0.3199E-01  0.3234E-01
  0.4442E-01  0.4787E-01  0.6121E-01  0.6798E-01  0.8717E-01  0.1105    
  0.1262      0.1274      0.1491      0.1702      0.2190      0.2892    
  0.3389      0.3889      0.4526      0.5454      0.5717      0.6224    
  0.6864      0.7369      0.8845      0.9501       1.028       1.064    
   1.103       1.122       1.184       1.213       1.384       1.406    
 NEWTON STEP ( 0.2309313580E+01) EXCEEDS TRUST RADIUS ( 0.5000000000E+00)
 LEVEL SHIFT     0.7889372492E-03

 INITIAL TRUST RADIUS    0.5000000000E+00

 PREDICTED ENERGY CHANGE    -0.231E-01

 INITIAL DISPLACEMENTS
  0.105469 -0.179357 -0.023835 -0.003400  0.076317 -0.024997 -0.021080  0.053335
 -0.004720  0.028460  0.028950  0.055251 -0.018411  0.011359 -0.003588  0.027844
  0.051762 -0.016008  0.015308  0.061419  0.015097 -0.002285  0.064375 -0.008942
 -0.071060 -0.404337 -0.025898 -0.028867 -0.017145  0.013497  0.010258  0.016831
 -0.016842  0.003101  0.033161  0.059355 -0.037360  0.004122  0.008215 -0.008033
 -0.039648 -0.008455
 TTTTTTTTTTTTTTTTTTTTTTTTTTTTTT OPTI        TELAPSE       29.53 TCPU       28.08

 OPTOPTOPTOPTOPTOPTOPTOPTOPTOPTOPTOPTOPTOPTOPTOPTOPTOPTOPTOPTOPTOPTOPTOPTOPTOPT

 - INFORMATION ON SCF MOVED TO SCFOUT.LOG
 GEOMETRY OPTIMIZATION INFORMATION STORED IN OPTINFO.DAT

 OPTOPTOPTOPTOPTOPTOPTOPTOPTOPTOPTOPTOPTOPTOPTOPTOPTOPTOPTOPTOPTOPTOPTOPTOPTOPT
 *******************************************************************************
 COORDINATE OPTIMIZATION - POINT    2
 *******************************************************************************
 LATTICE PARAMETERS (ANGSTROMS AND DEGREES) - BOHR = 0.5291772083 ANGSTROM
 PRIMITIVE CELL - CENTRING CODE 1/0 VOLUME=   412.228566 - DENSITY  0.725 g/cm^3
         A              B              C           ALPHA      BETA       GAMMA 
     7.40317242     7.40317242     8.68503800    90.000000  90.000000 120.000000
 *******************************************************************************
 ATOMS IN THE ASYMMETRIC UNIT   15 - ATOMS IN THE UNIT CELL:   15
     ATOM                 X/A                 Y/B                 Z/C    
 *******************************************************************************
      1 T   6 C     1.112435254326E-01 -4.587462014081E-01  2.985969570616E-01
      2 T   6 C     1.139024158617E-01 -1.040196603711E-01  2.986325326827E-01
      3 T   6 C     4.448865837377E-01  2.270062714175E-01  2.999367915483E-01
      4 T   6 C     4.472555251443E-01 -1.086211525161E-01  3.034592568347E-01
      5 T   6 C    -2.235915440860E-01  2.231103694309E-01  2.997347060713E-01
      6 T   6 C    -2.187883227689E-01 -4.404865664811E-01  2.990386492090E-01
      7 T   6 C    -2.197165675331E-01 -1.068772079275E-01  3.009340113829E-01
      8 T   6 C     2.232111574469E-01  1.149383353956E-01  2.994487295085E-01
      9 T   6 C     2.003943472968E-01  4.116939717986E-01  2.985703105397E-01
     10 T   6 C    -4.452919992900E-01  1.131159285619E-01  3.010254073909E-01
     11 T   6 C    -4.409794729870E-01  4.492419367558E-01  2.992066926628E-01
     12 T   6 C    -4.411987632980E-01 -2.166075839636E-01  3.034859739683E-01
     13 T   6 C    -1.117430915091E-01  1.138431196201E-01  2.997187014456E-01
     14 T   6 C    -1.102437770496E-01  4.444458122573E-01  2.987413657953E-01
     15 T   6 C    -1.071177941753E-01 -2.175929281249E-01  2.994699138987E-01

 T = ATOM BELONGING TO THE ASYMMETRIC UNIT

 TOTAL ENERGY(DFT)(AU)( 17) -5.7047229206312E+02     DE (AU)   -2.522E-02

 UPDATED TRUST RADIUS     0.100E+01

 SYMMETRY ALLOWED FORCES  (COORDINATE, FORCE)

    1  7.0300212E-02    2 -6.4398362E-02    3  1.0785026E-04    4 -4.0526096E-02
    5  6.4147432E-02    6  1.1172023E-03    7 -3.8639583E-02    8  3.9993639E-02
    9  8.3898936E-05   10  6.4972472E-02   11 -3.1155957E-02   12 -1.3495935E-03
   13  1.8001237E-02   14 -2.0503605E-02   15  4.2109537E-04   16 -2.2594071E-02
   17 -5.6353480E-03   18 -6.4077145E-05   19  4.0844957E-03   20  1.3509360E-02
   21  4.7416041E-04   22  4.8249860E-02   23 -6.3287788E-02   24 -7.5194449E-04
   25 -4.9573383E-02   26  1.0291858E-02   27 -3.3658642E-04   28 -7.1624868E-03
   29 -3.3896945E-02   30  5.3776057E-04   31  1.4734785E-02   32 -2.0701800E-02
   33  1.0245910E-03   34 -3.5460119E-02   35  2.9779813E-02   36 -1.4361149E-03
   37 -4.3636010E-02   38  4.8319664E-04   39  1.5172241E-05   40 -3.2388672E-02
   41  2.1998140E-02   42  4.0045886E-04

 GRADIENT NORM     0.202359  GRADIENT THRESHOLD     0.500000

 EIGENVALUES OF THE ESTIMATED HESSIAN
  0.2544E-03  0.1122E-02  0.1184E-02  0.2425E-02  0.3614E-02  0.3778E-02
  0.6152E-02  0.1341E-01  0.1552E-01  0.2251E-01  0.3173E-01  0.3209E-01
  0.4445E-01  0.4789E-01  0.6122E-01  0.7118E-01  0.8454E-01  0.1115    
  0.1262      0.1425      0.1517      0.1793      0.2339      0.2914    
  0.3279      0.4186      0.5137      0.5467      0.5807      0.6210    
  0.7178      0.7376      0.9230      0.9934       1.052       1.088    
   1.103       1.162       1.183       1.270       1.406       3.463    
 NEWTON STEP ( 0.1923996087E+03) EXCEEDS TRUST RADIUS ( 0.1000000000E+01)
 LEVEL SHIFT    -0.4868071234E-01

 PREDICTED ENERGY CHANGE    -0.852E-01

 MAX GRADIENT      0.070300  THRESHOLD              0.000450 CONVERGED NO
 RMS GRADIENT      0.031225  THRESHOLD              0.000300 CONVERGED NO
 MAX DISPLAC.      0.610778  THRESHOLD              0.001800 CONVERGED NO
 RMS DISPLAC.      0.154303  THRESHOLD              0.001200 CONVERGED NO
 TTTTTTTTTTTTTTTTTTTTTTTTTTTTTT OPTI        TELAPSE       58.62 TCPU       56.95
 *******************************************************************************
 COORDINATE OPTIMIZATION - POINT    3
 *******************************************************************************
 LATTICE PARAMETERS (ANGSTROMS AND DEGREES) - BOHR = 0.5291772083 ANGSTROM
 PRIMITIVE CELL - CENTRING CODE 1/0 VOLUME=   412.228566 - DENSITY  0.725 g/cm^3
         A              B              C           ALPHA      BETA       GAMMA 
     7.40317242     7.40317242     8.68503800    90.000000  90.000000 120.000000
 *******************************************************************************
 ATOMS IN THE ASYMMETRIC UNIT   15 - ATOMS IN THE UNIT CELL:   15
     ATOM                 X/A                 Y/B                 Z/C    
 *******************************************************************************
      1 T   6 C     1.097725727241E-01 -4.952721376164E-01  2.987449669438E-01
      2 T   6 C     1.177442769046E-01 -8.090805487916E-02  3.011165235795E-01
      3 T   6 C     4.441260441116E-01  2.349868550051E-01  3.001856685447E-01
      4 T   6 C     4.565975155207E-01 -1.187186861256E-01  3.001015093296E-01
      5 T   6 C    -2.338348341511E-01  2.210058018963E-01  3.009473600304E-01
      6 T   6 C    -2.159305932014E-01 -4.327359541056E-01  2.991565988349E-01
      7 T   6 C    -2.086065536268E-01 -9.174462786758E-02  3.014568176976E-01
      8 T   6 C     2.310803020162E-01  1.174730015578E-01  2.975336838219E-01
      9 T   6 C     1.637499943926E-01  3.639095892882E-01  2.981289769204E-01
     10 T   6 C    -4.543299294763E-01  1.063769560242E-01  3.020294412354E-01
     11 T   6 C    -4.375573969937E-01  4.562581105165E-01  3.012511915499E-01
     12 T   6 C    -4.267319375281E-01 -2.017227089908E-01  2.998408210650E-01
     13 T   6 C    -1.164352653900E-01  1.268697890008E-01  3.004782589203E-01
     14 T   6 C    -1.121461470477E-01  4.447334066961E-01  2.994195728553E-01
     15 T   6 C    -9.527582603171E-02 -2.060668959547E-01  2.996086086715E-01

 T = ATOM BELONGING TO THE ASYMMETRIC UNIT

 TOTAL ENERGY(DFT)(AU)( 21) -5.7053755299824E+02     DE (AU)   -6.526E-02

 UPDATED TRUST RADIUS     0.200E+01

 SYMMETRY ALLOWED FORCES  (COORDINATE, FORCE)

    1 -3.0244010E-02    2  1.0390548E-02    3  1.4745937E-04    4 -2.9969425E-02
    5 -4.0598410E-02    6 -3.5944940E-03    7  2.0580232E-02    8  1.1908162E-02
    9  5.4361983E-04   10 -3.7885128E-02   11  2.0474816E-02   12  9.5690530E-04
   13 -3.4418839E-02   14  1.5311108E-02   15  3.2601794E-04   16  5.5326343E-03
   17 -7.9687394E-03   18  2.0780937E-03   19  1.4613749E-02   20  3.7529723E-03
   21 -3.0644425E-03   22  8.6237642E-03   23  4.4229360E-02   24  3.3166383E-03
   25 -1.7460123E-02   26 -6.1745130E-02   27  2.9240070E-04   28 -1.2458410E-02
   29 -9.4881088E-03   30 -3.1852020E-03   31 -1.4505628E-02   32  7.1020590E-03
   33 -3.6361700E-03   34  8.9350273E-03   35 -2.0079967E-02   36  3.9108494E-04
   37  3.3422036E-02   38 -4.1005192E-03   39 -7.1278132E-04   40  1.8455292E-03
   41  2.1405929E-02   42 -1.6036230E-03

 GRADIENT NORM     0.128561  GRADIENT THRESHOLD     0.500000

 EIGENVALUES OF THE ESTIMATED HESSIAN
  0.2984E-03  0.1117E-02  0.1184E-02  0.2425E-02  0.3614E-02  0.3778E-02
  0.6167E-02  0.1344E-01  0.1552E-01  0.2251E-01  0.3007E-01  0.3205E-01
  0.4446E-01  0.4789E-01  0.6122E-01  0.7088E-01  0.9939E-01  0.1128    
  0.1262      0.1449      0.1590      0.2171      0.2419      0.2841    
  0.3248      0.4531      0.4960      0.5513      0.5813      0.6203    
  0.7187      0.7381      0.9138      0.9963       1.074       1.090    
   1.122       1.174       1.221       1.306       1.413       3.567    
 NEWTON STEP ( 0.1421650874E+03) EXCEEDS TRUST RADIUS ( 0.2000000000E+01)
 LEVEL SHIFT    -0.2089929171E-01

 PREDICTED ENERGY CHANGE    -0.986E-01

 MAX GRADIENT      0.061745  THRESHOLD              0.000450 CONVERGED NO
 RMS GRADIENT      0.019837  THRESHOLD              0.000300 CONVERGED NO
 MAX DISPLAC.      1.707969  THRESHOLD              0.001800 CONVERGED NO
 RMS DISPLAC.      0.308607  THRESHOLD              0.001200 CONVERGED NO
 TTTTTTTTTTTTTTTTTTTTTTTTTTTTTT OPTI        TELAPSE       93.29 TCPU       91.35
 *******************************************************************************
 COORDINATE OPTIMIZATION - POINT    4
 *******************************************************************************
 LATTICE PARAMETERS (ANGSTROMS AND DEGREES) - BOHR = 0.5291772083 ANGSTROM
 PRIMITIVE CELL - CENTRING CODE 1/0 VOLUME=   412.228566 - DENSITY  0.725 g/cm^3
         A              B              C           ALPHA      BETA       GAMMA 
     7.40317242     7.40317242     8.68503800    90.000000  90.000000 120.000000
 *******************************************************************************
 ATOMS IN THE ASYMMETRIC UNIT   15 - ATOMS IN THE UNIT CELL:   15
     ATOM                 X/A                 Y/B                 Z/C    
 *******************************************************************************
      1 T   6 C     1.038190989574E-01  4.573653000710E-01  2.992325631620E-01
      2 T   6 C     1.233411786547E-01 -6.156759832495E-02  2.972346947305E-01
      3 T   6 C     4.522081888347E-01  2.534943006241E-01  3.003075177004E-01
      4 T   6 C     4.684098111661E-01 -1.080741296087E-01  3.006440861128E-01
      5 T   6 C    -2.351245823683E-01  2.283331983654E-01  3.007943541079E-01
      6 T   6 C    -2.058560932790E-01 -4.182938930810E-01  3.011344709640E-01
      7 T   6 C    -1.927648633350E-01 -7.318078508239E-02  2.994707778340E-01
      8 T   6 C     2.418432166061E-01  1.309191366370E-01  3.021992775712E-01
      9 T   6 C     5.560232401100E-02  2.255507365905E-01  2.983274846971E-01
     10 T   6 C    -4.534805849814E-01  1.143351649304E-01  2.993162116100E-01
     11 T   6 C    -4.252119134873E-01  4.739970841757E-01  2.983463284290E-01
     12 T   6 C    -4.096052131949E-01 -1.797618046615E-01  3.009570163495E-01
     13 T   6 C    -1.079842767852E-01  1.424356838932E-01  3.006261815538E-01
     14 T   6 C    -1.108574273431E-01  4.500408727605E-01  3.002311885297E-01
     15 T   6 C    -8.211664123273E-02 -1.911488228440E-01  3.011778466481E-01

 T = ATOM BELONGING TO THE ASYMMETRIC UNIT

 MAXIMUM ATOM DISPLACEMENT WITH RESPECT TO
 THE PRESENT REFERENCE GEOMETRY:   2.770170892850E+00

 REFERENCE GEOMETRY WILL BE CHANGED

 TOTAL ENERGY(DFT)(AU)( 23) -5.7035116113013E+02     DE (AU)    1.864E-01

 SYMMETRY ALLOWED FORCES  (COORDINATE, FORCE)

    1 -2.7553093E-02    2  6.5428247E-03    3 -4.1997467E-04    4  2.7643919E-02
    5 -1.1129429E-01    6  2.1275942E-03    7  5.5054344E-02    8  1.4861960E-02
    9 -1.5837064E-03   10 -8.8410946E-02   11  3.5400143E-02   12 -1.0252632E-03
   13 -8.0063920E-02   14  2.6390871E-02   15 -1.1521698E-03   16  1.5089413E-02
   17 -1.8486242E-02   18 -3.5040320E-03   19 -3.1479831E-02   20 -1.1890789E-01
   21  3.9636889E-03   22 -1.2363214E-01   23  9.6723346E-02   24 -4.0690469E-03
   25  7.1140131E-01   26  5.3690985E-01   27 -9.6013663E-03   28  1.0599936E-01
   29  1.1042515E-01   30  5.9171667E-04   31  1.1241482E-01   32  1.2093447E-01
   33  2.4491182E-03   34  2.0814662E-01   35  7.7327570E-02   36 -3.3108031E-03
   37 -4.5835098E-01   38 -3.5529239E-01   39  9.6280483E-03   40  7.3514547E-02
   41  4.3720805E-03   42  3.4364162E-03

 GRADIENT NORM     1.144592  GRADIENT THRESHOLD     0.500000

 HESSIAN UPDATE SKIPPED

 EIGENVALUES OF THE ESTIMATED HESSIAN
  0.2984E-03  0.1117E-02  0.1184E-02  0.2425E-02  0.3614E-02  0.3778E-02
  0.6167E-02  0.1344E-01  0.1552E-01  0.2251E-01  0.3007E-01  0.3205E-01
  0.4446E-01  0.4789E-01  0.6122E-01  0.7088E-01  0.9939E-01  0.1128    
  0.1262      0.1449      0.1590      0.2171      0.2419      0.2841    
  0.3248      0.4531      0.4960      0.5513      0.5813      0.6203    
  0.7187      0.7381      0.9138      0.9963       1.074       1.090    
   1.122       1.174       1.221       1.306       1.413       3.567    
 NEWTON STEP ( 0.1766767632E+04) EXCEEDS TRUST RADIUS ( 0.2000000000E+01)
 LEVEL SHIFT    -0.2631772734E+00

 PREDICTED ENERGY CHANGE    -0.204E+01

 MAX GRADIENT      0.711401  THRESHOLD              0.000450 CONVERGED NO
 RMS GRADIENT      0.176614  THRESHOLD              0.000300 CONVERGED NO
 MAX DISPLAC.      1.218887  THRESHOLD              0.001800 CONVERGED NO
 RMS DISPLAC.      0.308607  THRESHOLD              0.001200 CONVERGED NO
 TTTTTTTTTTTTTTTTTTTTTTTTTTTTTT OPTI        TELAPSE      132.17 TCPU      129.97
 *******************************************************************************
 COORDINATE OPTIMIZATION - POINT    5
 *******************************************************************************
 LATTICE PARAMETERS (ANGSTROMS AND DEGREES) - BOHR = 0.5291772083 ANGSTROM
 PRIMITIVE CELL - CENTRING CODE 1/0 VOLUME=   412.228566 - DENSITY  0.725 g/cm^3
         A              B              C           ALPHA      BETA       GAMMA 
     7.40317242     7.40317242     8.68503800    90.000000  90.000000 120.000000
 *******************************************************************************
 ATOMS IN THE ASYMMETRIC UNIT   15 - ATOMS IN THE UNIT CELL:   15
     ATOM                 X/A                 Y/B                 Z/C    
 *******************************************************************************
      1 T   6 C     1.175515169524E-01  4.693475719958E-01  2.990481723191E-01
      2 T   6 C     1.201868358221E-01 -7.295317553668E-02  2.969616758871E-01
      3 T   6 C     4.516157254256E-01  2.551282145220E-01  3.001380691634E-01
      4 T   6 C     4.597112927437E-01 -9.955786783582E-02  3.011353329885E-01
      5 T   6 C    -2.483588301542E-01  2.243047247949E-01  3.005524023992E-01
      6 T   6 C    -2.010822718934E-01 -4.221652392721E-01  3.008271255897E-01
      7 T   6 C    -2.212213999437E-01 -1.024258866812E-01  2.997641559957E-01
      8 T   6 C     2.308691483452E-01  1.393650256764E-01  3.021023632194E-01
      9 T   6 C     1.882850794874E-01  3.212566803187E-01  2.974455010022E-01
     10 T   6 C    -4.557460700681E-01  1.199582102873E-01  2.992927142974E-01
     11 T   6 C    -4.208162114488E-01  4.751398398257E-01  2.984386462247E-01
     12 T   6 C    -4.261393936848E-01 -1.990074898989E-01  3.014282417332E-01
     13 T   6 C    -1.779740757625E-01  9.068072332331E-02  3.019699693317E-01
     14 T   6 C    -1.035797044793E-01  4.433585925193E-01  3.000945262878E-01
     15 T   6 C    -9.107941911860E-02 -1.979854795933E-01  3.008011035609E-01

 T = ATOM BELONGING TO THE ASYMMETRIC UNIT

 MAXIMUM ATOM DISPLACEMENT WITH RESPECT TO
 THE PRESENT REFERENCE GEOMETRY:   1.659264721857E+00

 REFERENCE GEOMETRY WILL BE CHANGED

 TOTAL ENERGY(DFT)(AU)( 23) -5.7049975585577E+02     DE (AU)   -1.486E-01

 SYMMETRY ALLOWED FORCES  (COORDINATE, FORCE)

    1  2.7295754E-02    2 -9.3793499E-02    3 -6.3179384E-04    4 -1.9611737E-03
    5 -1.8276603E-02    6  5.3148024E-03    7  3.3425201E-02    8 -1.9477710E-02
    9  3.8218934E-04   10 -1.3184921E-02   11 -2.7652586E-02   12 -1.0107916E-03
   13  5.5209509E-02   14  3.8570084E-02   15 -1.5617115E-04   16  3.0429241E-02
   17 -3.2604405E-02   18 -2.7376326E-03   19  1.0650275E-01   20 -2.2873714E-02
   21  2.3204771E-03   22  1.6970522E-03   23  9.0599125E-02   24 -7.6849216E-03
   25 -1.0780605E-01   26  1.5597898E-02   27  4.3119041E-03   28 -6.8360320E-02
   29 -2.1571475E-02   30  2.3681934E-03   31 -5.2755063E-03   32 -2.3205674E-02
   33  4.2742841E-03   34 -1.2638812E-01   35 -5.5324989E-02   36  4.9422331E-04
   37  3.2186367E-02   38  3.5885390E-02   39  7.0801093E-04   40  4.1722015E-03
   41  2.1139134E-02   42  2.9444032E-03

 GRADIENT NORM     0.280114  GRADIENT THRESHOLD     0.500000

 HESSIAN UPDATE SKIPPED

 EIGENVALUES OF THE ESTIMATED HESSIAN
  0.2984E-03  0.1117E-02  0.1184E-02  0.2425E-02  0.3614E-02  0.3778E-02
  0.6167E-02  0.1344E-01  0.1552E-01  0.2251E-01  0.3007E-01  0.3205E-01
  0.4446E-01  0.4789E-01  0.6122E-01  0.7088E-01  0.9939E-01  0.1128    
  0.1262      0.1449      0.1590      0.2171      0.2419      0.2841    
  0.3248      0.4531      0.4960      0.5513      0.5813      0.6203    
  0.7187      0.7381      0.9138      0.9963       1.074       1.090    
[...]
   8 C    1     2.4977     4.7200   15 C   -1-1 0
   8 C    1     2.5029     4.7297   10 C    0 0 0

   9 C    1     1.4463     2.7331    1 C    0 0 0
   9 C    1     1.4533     2.7463   13 C   -1 0 0
   9 C    1     1.4682     2.7746    8 C    0 0 0
   9 C    1     2.3478     4.4367    5 C   -1 0 0
   9 C    1     2.4048     4.5445   14 C   -1 0 0
   9 C    1     2.4871     4.6999    2 C    0-1 0

  10 C    1     1.3933     2.6330    5 C    0 0 0
  10 C    1     1.4458     2.7322    4 C    0-1 0
  10 C    1     1.4951     2.8254    3 C    0 0 0
  10 C    1     2.4702     4.6680   13 C    0 0 0
  10 C    1     2.4712     4.6700   11 C    0 0 0
  10 C    1     2.4933     4.7117   12 C    0-1 0

  11 C    1     1.3907     2.6280    3 C    0 0 0
  11 C    1     1.4213     2.6859    6 C    0 0 0
  11 C    1     2.4031     4.5412   15 C    0 0 0
  11 C    1     2.4690     4.6657   12 C    0 0 0
  11 C    1     2.4712     4.6700   10 C    0 0 0
  11 C    1     2.4872     4.7000   14 C    0 0 0

  12 C    1     1.4020     2.6495    4 C    0 0 0
  12 C    1     1.4457     2.7321    7 C    0 0 0
  12 C    1     2.3882     4.5130   13 C    0 1 0
  12 C    1     2.4690     4.6657   11 C    0 0 0
  12 C    1     2.4933     4.7117   10 C    0 1 0
  12 C    1     2.6543     5.0158   15 C    0 0 0

  13 C    1     1.3934     2.6332    7 C    0-1 0
  13 C    1     1.4137     2.6715    5 C    0 0 0
  13 C    1     1.4533     2.7463    9 C    1 0 0
  13 C    1     2.2821     4.3125    1 C    1 0 0
  13 C    1     2.3476     4.4362   14 C    0 0 0
  13 C    1     2.3882     4.5130   12 C    0-1 0

  14 C    1     1.4464     2.7334    1 C    1 0 0
  14 C    1     1.4531     2.7460    5 C    0 0 0
  14 C    1     1.4683     2.7747    6 C    0 0 0
  14 C    1     2.3476     4.4362   13 C    0 0 0
  14 C    1     2.4048     4.5445    9 C    1 0 0
  14 C    1     2.4872     4.7000   11 C    0 0 0

  15 C    1     1.3906     2.6279    2 C    1 0 0
  15 C    1     1.4542     2.7480    6 C    0 0 0
  15 C    1     1.4951     2.8253    7 C    0 0 0
  15 C    1     2.4031     4.5412   11 C    0 0 0
  15 C    1     2.4569     4.6429   13 C    0 1 0
  15 C    1     2.4977     4.7200    8 C    1 1 0


 FINAL OPTIMIZED GEOMETRY - DIMENSIONALITY OF THE SYSTEM      3
 (NON PERIODIC DIRECTION: LATTICE PARAMETER FORMALLY SET TO 500)
 *******************************************************************************
 LATTICE PARAMETERS (ANGSTROMS AND DEGREES) - BOHR = 0.5291772083 ANGSTROM
 PRIMITIVE CELL - CENTRING CODE 1/0 VOLUME=   412.228566 - DENSITY  0.725 g/cm^3
         A              B              C           ALPHA      BETA       GAMMA 
     7.40317242     7.40317242     8.68503800    90.000000  90.000000 120.000000
 *******************************************************************************
 ATOMS IN THE ASYMMETRIC UNIT   15 - ATOMS IN THE UNIT CELL:   15
     ATOM                 X/A                 Y/B                 Z/C    
 *******************************************************************************
      1 T   6 C     1.131088292998E-01  4.612435214706E-01  3.001725230204E-01
      2 T   6 C     1.312594397512E-01 -5.935351620003E-02  3.000358278744E-01
      3 T   6 C     4.559640283144E-01  2.652005132541E-01  3.000060927766E-01
      4 T   6 C     4.427411269480E-01 -9.977672499642E-02  2.999869854374E-01
      5 T   6 C    -2.351360528876E-01  2.232696653819E-01  2.999028318118E-01
      6 T   6 C    -1.862711370747E-01 -4.224168118881E-01  2.999989790129E-01
      7 T   6 C    -2.225847408150E-01 -1.039558505017E-01  2.999527459610E-01
      8 T   6 C     2.294417483378E-01  1.618800561402E-01  3.000479720035E-01
      9 T   6 C     9.830726394632E-02  2.589048493697E-01  3.000043337189E-01
     10 T   6 C    -4.521012902494E-01  1.255664392467E-01  2.999466166398E-01
     11 T   6 C    -4.074940295005E-01  4.794346240548E-01  3.000073428694E-01
     12 T   6 C    -4.479161017723E-01 -2.091148569114E-01  3.000014439000E-01
     13 T   6 C    -1.248837271359E-01  1.130231576553E-01  2.999250024342E-01
     14 T   6 C    -8.925462436735E-02  4.464337262290E-01  2.999815851819E-01
     15 T   6 C    -8.295851057160E-02 -1.958943478596E-01  3.000297173579E-01

 T = ATOM BELONGING TO THE ASYMMETRIC UNIT
 INFORMATION **** fort.34 **** GEOMETRY OUTPUT FILE

 DIRECT LATTICE VECTORS CARTESIAN COMPONENTS (ANGSTROM)
          X                    Y                    Z
   0.370158621205E+01  -0.641133538787E+01   0.000000000000E+00
   0.370158621205E+01   0.641133538787E+01   0.000000000000E+00
   0.000000000000E+00   0.000000000000E+00   0.868503800000E+01


 CARTESIAN COORDINATES - PRIMITIVE CELL
 *******************************************************************************
 *      ATOM          X(ANGSTROM)         Y(ANGSTROM)         Z(ANGSTROM)
 *******************************************************************************
    1     6 C     2.126014742470E+00  2.232008271659E+00  2.607009768988E+00
    2     6 C     3.967752187231E+00  5.189251797990E+00  2.605822566451E+00
    3     6 C     2.669452723689E+00 -1.223048874820E+00  2.605564315996E+00
    4     6 C     4.971098513536E+00  2.933071485146E+00  2.605398368029E+00
    5     6 C     3.657661755671E+00 -3.472342584324E+00  2.604667490593E+00
    6     6 C     5.150061504777E+00 -1.514009121622E+00  2.605502532688E+00
    7     6 C     6.194454273606E+00  7.605696024885E-01  2.605100996876E+00
    8     6 C     1.448511395930E+00 -4.331606680503E-01  2.605928038673E+00
    9     6 C     1.322251433427E+00  1.029644982631E+00  2.605549038514E+00
   10     6 C     2.492889309824E+00 -2.707713831319E+00  2.605047763488E+00
   11     6 C     3.967880524938E+00 -7.249383248149E-01  2.605575173100E+00
   12     6 C     4.971115686545E+00  1.531034871843E+00  2.605523940326E+00
   13     6 C     3.657683291592E+00 -4.886034558387E+00  2.604860043291E+00
   14     6 C     5.023715450732E+00 -2.976857708820E+00  2.605351466605E+00
   15     6 C     6.370974528139E+00 -7.240695301627E-01  2.605769496382E+00

 ****    1 SYMMOPS - TRANSLATORS IN FRACTIONAL UNITS
 **** MATRICES AND TRANSLATORS IN THE CRYSTALLOGRAPHIC REFERENCE FRAME
   V INV                    ROTATION MATRICES                   TRANSLATORS
   1   1  1.00  0.00  0.00  0.00  1.00  0.00  0.00  0.00  1.00  0.00  0.00  0.00
 TTTTTTTTTTTTTTTTTTTTTTTTTTTTTT END         TELAPSE     1129.18 TCPU     1120.41
 EEEEEEEEEE TERMINATION  DATE 31 10 2022 TIME 23:40:42.2
NODE    0 CPU TIME =      1120.405
    TOTAL CPU TIME =    143592.374
Note: The following floating-point exceptions are signalling: IEEE_UNDERFLOW_FLAG IEEE_DENORMAL
Note: The following floating-point exceptions are signalling: IEEE_UNDERFLOW_FLAG IEEE_DENORMAL
Note: The following floating-point exceptions are signalling: IEEE_UNDERFLOW_FLAG IEEE_DENORMAL
Note: The following floating-point exceptions are signalling: IEEE_UNDERFLOW_FLAG IEEE_DENORMAL
Note: The following floating-point exceptions are signalling: IEEE_UNDERFLOW_FLAG IEEE_DENORMAL
Note: The following floating-point exceptions are signalling: IEEE_UNDERFLOW_FLAG IEEE_DENORMAL
Note: The following floating-point exceptions are signalling: IEEE_UNDERFLOW_FLAG IEEE_DENORMAL
Note: The following floating-point exceptions are signalling: IEEE_UNDERFLOW_FLAG IEEE_DENORMAL
Note: The following floating-point exceptions are signalling: IEEE_UNDERFLOW_FLAG IEEE_DENORMAL
Note: The following floating-point exceptions are signalling: IEEE_UNDERFLOW_FLAG IEEE_DENORMAL
Note: The following floating-point exceptions are signalling: IEEE_UNDERFLOW_FLAG IEEE_DENORMAL
Note: The following floating-point exceptions are signalling: IEEE_UNDERFLOW_FLAG IEEE_DENORMAL
Note: The following floating-point exceptions are signalling: IEEE_UNDERFLOW_FLAG IEEE_DENORMAL
Note: The following floating-point exceptions are signalling: IEEE_UNDERFLOW_FLAG IEEE_DENORMAL
Note: The following floating-point exceptions are signalling: IEEE_UNDERFLOW_FLAG IEEE_DENORMAL
Note: The following floating-point exceptions are signalling: IEEE_UNDERFLOW_FLAG IEEE_DENORMAL
Note: The following floating-point exceptions are signalling: IEEE_UNDERFLOW_FLAG IEEE_DENORMAL
Note: The following floating-point exceptions are signalling: IEEE_UNDERFLOW_FLAG IEEE_DENORMAL
Note: The following floating-point exceptions are signalling: IEEE_UNDERFLOW_FLAG IEEE_DENORMAL
Note: The following floating-point exceptions are signalling: IEEE_UNDERFLOW_FLAG IEEE_DENORMAL
Note: The following floating-point exceptions are signalling: IEEE_UNDERFLOW_FLAG IEEE_DENORMAL
Note: The following floating-point exceptions are signalling: IEEE_UNDERFLOW_FLAG IEEE_DENORMAL
Note: The following floating-point exceptions are signalling: IEEE_UNDERFLOW_FLAG IEEE_DENORMAL
Note: The following floating-point exceptions are signalling: IEEE_UNDERFLOW_FLAG IEEE_DENORMAL
Note: The following floating-point exceptions are signalling: IEEE_UNDERFLOW_FLAG IEEE_DENORMAL
Note: The following floating-point exceptions are signalling: IEEE_UNDERFLOW_FLAG IEEE_DENORMAL
Note: The following floating-point exceptions are signalling: IEEE_UNDERFLOW_FLAG IEEE_DENORMAL
Note: The following floating-point exceptions are signalling: IEEE_UNDERFLOW_FLAG IEEE_DENORMAL
Note: The following floating-point exceptions are signalling: IEEE_UNDERFLOW_FLAG IEEE_DENORMAL
Note: The following floating-point exceptions are signalling: IEEE_INVALID_FLAG IEEE_UNDERFLOW_FLAG IEEE_DENORMAL
Note: The following floating-point exceptions are signalling: IEEE_UNDERFLOW_FLAG IEEE_DENORMAL
Note: The following floating-point exceptions are signalling: IEEE_UNDERFLOW_FLAG IEEE_DENORMAL
Note: The following floating-point exceptions are signalling: IEEE_UNDERFLOW_FLAG IEEE_DENORMAL
Note: The following floating-point exceptions are signalling: IEEE_UNDERFLOW_FLAG IEEE_DENORMAL
Note: The following floating-point exceptions are signalling: IEEE_UNDERFLOW_FLAG IEEE_DENORMAL
Note: The following floating-point exceptions are signalling: IEEE_UNDERFLOW_FLAG IEEE_DENORMAL
Note: The following floating-point exceptions are signalling: IEEE_UNDERFLOW_FLAG IEEE_DENORMAL
Note: The following floating-point exceptions are signalling: IEEE_UNDERFLOW_FLAG IEEE_DENORMAL
Note: The following floating-point exceptions are signalling: IEEE_UNDERFLOW_FLAG IEEE_DENORMAL
Note: The following floating-point exceptions are signalling: IEEE_UNDERFLOW_FLAG IEEE_DENORMAL
Note: The following floating-point exceptions are signalling: IEEE_UNDERFLOW_FLAG IEEE_DENORMAL
Note: The following floating-point exceptions are signalling: IEEE_UNDERFLOW_FLAG IEEE_DENORMAL
Note: The following floating-point exceptions are signalling: IEEE_UNDERFLOW_FLAG IEEE_DENORMAL
Note: The following floating-point exceptions are signalling: IEEE_UNDERFLOW_FLAG IEEE_DENORMAL
Note: The following floating-point exceptions are signalling: IEEE_UNDERFLOW_FLAG IEEE_DENORMAL
Note: The following floating-point exceptions are signalling: IEEE_UNDERFLOW_FLAG IEEE_DENORMAL
Note: The following floating-point exceptions are signalling: IEEE_UNDERFLOW_FLAG IEEE_DENORMAL
Note: The following floating-point exceptions are signalling: IEEE_UNDERFLOW_FLAG IEEE_DENORMAL
Note: The following floating-point exceptions are signalling: IEEE_UNDERFLOW_FLAG IEEE_DENORMAL
Note: The following floating-point exceptions are signalling: IEEE_UNDERFLOW_FLAG IEEE_DENORMAL
Note: The following floating-point exceptions are signalling: IEEE_UNDERFLOW_FLAG IEEE_DENORMAL
Note: The following floating-point exceptions are signalling: IEEE_UNDERFLOW_FLAG IEEE_DENORMAL
Note: The following floating-point exceptions are signalling: IEEE_UNDERFLOW_FLAG IEEE_DENORMAL
Note: The following floating-point exceptions are signalling: IEEE_UNDERFLOW_FLAG IEEE_DENORMAL
Note: The following floating-point exceptions are signalling: IEEE_UNDERFLOW_FLAG IEEE_DENORMAL
Note: The following floating-point exceptions are signalling: IEEE_UNDERFLOW_FLAG IEEE_DENORMAL
Note: The following floating-point exceptions are signalling: IEEE_UNDERFLOW_FLAG IEEE_DENORMAL
Note: The following floating-point exceptions are signalling: IEEE_UNDERFLOW_FLAG IEEE_DENORMAL
Note: The following floating-point exceptions are signalling: IEEE_UNDERFLOW_FLAG IEEE_DENORMAL
Note: The following floating-point exceptions are signalling: IEEE_UNDERFLOW_FLAG IEEE_DENORMAL
Note: The following floating-point exceptions are signalling: IEEE_UNDERFLOW_FLAG IEEE_DENORMAL
Note: The following floating-point exceptions are signalling: IEEE_UNDERFLOW_FLAG IEEE_DENORMAL
Note: The following floating-point exceptions are signalling: IEEE_UNDERFLOW_FLAG IEEE_DENORMAL
Note: The following floating-point exceptions are signalling: IEEE_UNDERFLOW_FLAG IEEE_DENORMAL
Note: The following floating-point exceptions are signalling: IEEE_UNDERFLOW_FLAG IEEE_DENORMAL
Note: The following floating-point exceptions are signalling: IEEE_UNDERFLOW_FLAG IEEE_DENORMAL
Note: The following floating-point exceptions are signalling: IEEE_UNDERFLOW_FLAG IEEE_DENORMAL
Note: The following floating-point exceptions are signalling: IEEE_UNDERFLOW_FLAG IEEE_DENORMAL
Note: The following floating-point exceptions are signalling: IEEE_UNDERFLOW_FLAG IEEE_DENORMAL
Note: The following floating-point exceptions are signalling: IEEE_UNDERFLOW_FLAG IEEE_DENORMAL
Note: The following floating-point exceptions are signalling: IEEE_UNDERFLOW_FLAG IEEE_DENORMAL
Note: The following floating-point exceptions are signalling: IEEE_UNDERFLOW_FLAG IEEE_DENORMAL
Note: The following floating-point exceptions are signalling: IEEE_UNDERFLOW_FLAG IEEE_DENORMAL
Note: The following floating-point exceptions are signalling: IEEE_UNDERFLOW_FLAG IEEE_DENORMAL
Note: The following floating-point exceptions are signalling: IEEE_UNDERFLOW_FLAG IEEE_DENORMAL
Note: The following floating-point exceptions are signalling: IEEE_UNDERFLOW_FLAG IEEE_DENORMAL
Note: The following floating-point exceptions are signalling: IEEE_UNDERFLOW_FLAG IEEE_DENORMAL
Note: The following floating-point exceptions are signalling: IEEE_UNDERFLOW_FLAG IEEE_DENORMAL
Note: The following floating-point exceptions are signalling: IEEE_UNDERFLOW_FLAG IEEE_DENORMAL
Note: The following floating-point exceptions are signalling: IEEE_UNDERFLOW_FLAG IEEE_DENORMAL
Note: The following floating-point exceptions are signalling: IEEE_UNDERFLOW_FLAG IEEE_DENORMAL
Note: The following floating-point exceptions are signalling: IEEE_UNDERFLOW_FLAG IEEE_DENORMAL
Note: The following floating-point exceptions are signalling: IEEE_UNDERFLOW_FLAG IEEE_DENORMAL
Note: The following floating-point exceptions are signalling: IEEE_UNDERFLOW_FLAG IEEE_DENORMAL
Note: The following floating-point exceptions are signalling: IEEE_UNDERFLOW_FLAG IEEE_DENORMAL
Note: The following floating-point exceptions are signalling: IEEE_UNDERFLOW_FLAG IEEE_DENORMAL
Note: The following floating-point exceptions are signalling: IEEE_UNDERFLOW_FLAG IEEE_DENORMAL
Note: The following floating-point exceptions are signalling: IEEE_UNDERFLOW_FLAG IEEE_DENORMAL
Note: The following floating-point exceptions are signalling: IEEE_UNDERFLOW_FLAG IEEE_DENORMAL
Note: The following floating-point exceptions are signalling: IEEE_UNDERFLOW_FLAG IEEE_DENORMAL
Note: The following floating-point exceptions are signalling: IEEE_INVALID_FLAG IEEE_UNDERFLOW_FLAG IEEE_DENORMAL
Note: The following floating-point exceptions are signalling: IEEE_UNDERFLOW_FLAG IEEE_DENORMAL
Note: The following floating-point exceptions are signalling: IEEE_UNDERFLOW_FLAG IEEE_DENORMAL
Note: The following floating-point exceptions are signalling: IEEE_UNDERFLOW_FLAG IEEE_DENORMAL
Note: The following floating-point exceptions are signalling: IEEE_UNDERFLOW_FLAG IEEE_DENORMAL
Note: The following floating-point exceptions are signalling: IEEE_UNDERFLOW_FLAG IEEE_DENORMAL
Note: The following floating-point exceptions are signalling: IEEE_UNDERFLOW_FLAG IEEE_DENORMAL
Note: The following floating-point exceptions are signalling: IEEE_UNDERFLOW_FLAG IEEE_DENORMAL
Note: The following floating-point exceptions are signalling: IEEE_UNDERFLOW_FLAG IEEE_DENORMAL
Note: The following floating-point exceptions are signalling: IEEE_UNDERFLOW_FLAG IEEE_DENORMAL
Note: The following floating-point exceptions are signalling: IEEE_UNDERFLOW_FLAG IEEE_DENORMAL
Note: The following floating-point exceptions are signalling: IEEE_UNDERFLOW_FLAG IEEE_DENORMAL
Note: The following floating-point exceptions are signalling: IEEE_UNDERFLOW_FLAG IEEE_DENORMAL
Note: The following floating-point exceptions are signalling: IEEE_UNDERFLOW_FLAG IEEE_DENORMAL
Note: The following floating-point exceptions are signalling: IEEE_UNDERFLOW_FLAG IEEE_DENORMAL
Note: The following floating-point exceptions are signalling: IEEE_UNDERFLOW_FLAG IEEE_DENORMAL
Note: The following floating-point exceptions are signalling: IEEE_UNDERFLOW_FLAG IEEE_DENORMAL
Note: The following floating-point exceptions are signalling: IEEE_UNDERFLOW_FLAG IEEE_DENORMAL
Note: The following floating-point exceptions are signalling: IEEE_UNDERFLOW_FLAG IEEE_DENORMAL
Note: The following floating-point exceptions are signalling: IEEE_UNDERFLOW_FLAG IEEE_DENORMAL
Note: The following floating-point exceptions are signalling: IEEE_UNDERFLOW_FLAG IEEE_DENORMAL
Note: The following floating-point exceptions are signalling: IEEE_UNDERFLOW_FLAG IEEE_DENORMAL
Note: The following floating-point exceptions are signalling: IEEE_UNDERFLOW_FLAG IEEE_DENORMAL
Note: The following floating-point exceptions are signalling: IEEE_UNDERFLOW_FLAG IEEE_DENORMAL
Note: The following floating-point exceptions are signalling: IEEE_UNDERFLOW_FLAG IEEE_DENORMAL
Note: The following floating-point exceptions are signalling: IEEE_UNDERFLOW_FLAG IEEE_DENORMAL
Note: The following floating-point exceptions are signalling: IEEE_UNDERFLOW_FLAG IEEE_DENORMAL
Note: The following floating-point exceptions are signalling: IEEE_UNDERFLOW_FLAG IEEE_DENORMAL
Note: The following floating-point exceptions are signalling: IEEE_UNDERFLOW_FLAG IEEE_DENORMAL
Note: The following floating-point exceptions are signalling: IEEE_UNDERFLOW_FLAG IEEE_DENORMAL
Note: The following floating-point exceptions are signalling: IEEE_UNDERFLOW_FLAG IEEE_DENORMAL
Note: The following floating-point exceptions are signalling: IEEE_UNDERFLOW_FLAG IEEE_DENORMAL
Note: The following floating-point exceptions are signalling: IEEE_UNDERFLOW_FLAG IEEE_DENORMAL
Note: The following floating-point exceptions are signalling: IEEE_UNDERFLOW_FLAG IEEE_DENORMAL
Note: The following floating-point exceptions are signalling: IEEE_UNDERFLOW_FLAG IEEE_DENORMAL
Note: The following floating-point exceptions are signalling: IEEE_UNDERFLOW_FLAG IEEE_DENORMAL
Note: The following floating-point exceptions are signalling: IEEE_UNDERFLOW_FLAG IEEE_DENORMAL
Note: The following floating-point exceptions are signalling: IEEE_UNDERFLOW_FLAG IEEE_DENORMAL
end_date Mon Oct 31 23:40:42 GMT 2022
 
TEMPORARY          SAVED (in /mnt/lustre/a2fs-work2/work/e05/e05/bcamino/quantum_computing/test_model/optgeom)
fort.34            graphene_3v_K.gui 1492     Oct 31 23:40
fort.33            graphene_3v_K.xyz 43893    Oct 31 23:40
fort.9             graphene_3v_K.f9  1549888  Oct 31 23:40
fort.98            graphene_3v_K.f98 4033642  Oct 31 23:40
SCFOUT.LOG         graphene_3v_K.SCFLOG952714   Oct 31 23:40
OPTINFO.DAT        graphene_3v_K.OPTINFO11906031 Oct 31 23:40
HESSOPT.DAT        graphene_3v_K.HESSOPT37485    Oct 31 23:40
opta001            opta002            
Disk usage:<du -m>
510	/mnt/lustre/a2fs-work2/work/e05/e05/bcamino/quantum_computing/test_model/optgeom/tmp_graphene_3v_K_
</du -m>
Filesystem                                          1K-blocks          Used     Available Use% Mounted on
10.253.102.2@o2ib1:10.253.102.3@o2ib1:/cls01097 3582178503216 1817004899076 1728952090152  52% /mnt/lustre/a2fs-work2
10.253.102.2@o2ib1:10.253.102.3@o2ib1:/cls01097 3582178503216 1817004899076 1728952090152  52% /mnt/lustre/a2fs-work2
