date:                Mon Oct 31 23:40:43 GMT 2022
hostname:            nid005741
system:              Linux nid005741 4.12.14-197.78_9.1.64-cray_shasta_c #1 SMP Wed Aug 25 14:56:40 UTC 2021 (4e2a900) x86_64 x86_64 x86_64 GNU/Linux
user:                bcamino
input:               /mnt/lustre/a2fs-work2/work/e05/e05/bcamino/quantum_computing/test_model/optgeom/graphene_3v_L.d12
output:              /mnt/lustre/a2fs-work2/work/e05/e05/bcamino/quantum_computing/test_model/optgeom/graphene_3v_L.out
executable script:   /work/e05/e05/bcamino/runCRYSTAL/Pcry_slurm
executable:          Pcrystal
Command:             srun --hint=nomultithread --distribution=block:block Pcrystal
Slurm JobID:         
temporary directory: /mnt/lustre/a2fs-work2/work/e05/e05/bcamino/quantum_computing/test_model/optgeom/tmp_graphene_3v_L_      
input data /mnt/lustre/a2fs-work2/work/e05/e05/bcamino/quantum_computing/test_model/optgeom/graphene_3v_L.d12
Final
EXTERNAL
SYMMREMO
OPTGEOM
ATOMONLY
END
END
6 8
0 0 6 2.0 1.0
  13575.349682      0.00022245814352
  2035.2333680      0.00172327382520
  463.22562359      0.00892557153140
  131.20019598      0.03572798450200
  42.853015891      0.11076259931000
  15.584185766      0.24295627626000
0 0 2 2.0 1.0
  6.2067138508      0.41440263448000
  2.5764896527      0.23744968655000
0 0 1 0.0 1.0
  0.4941102000      1.00000000000000
0 0 1 0.0 1.0
  0.1644071000      1.00000000000000
0 2 4 2.0 1.0
  34.697232244      0.00533336578050
  7.9582622826      0.03586410909200
  2.3780826883      0.14215873329000
  0.8143320818      0.34270471845000
0 2 1 0.0 1.0
  0.5662417100      1.00000000000000
0 2 1 0.0 1.0
  0.1973545000      1.00000000000000
0 3 1 0.0 1.0
  0.5791584200      1.00000000000000
99 0
ENDBS
DFT
PBE  
ENDDFT
TOLINTEG
8 8 8 8 16
SCFDIR
SHRINK
8 16  
MAXCYCLE
200
TOLDEE
9 
ENDSCF
input data /mnt/lustre/a2fs-work2/work/e05/e05/bcamino/quantum_computing/test_model/optgeom/graphene_3v_L.gui
         128 PROCESSORS WORKING

         
 *******************************************************************************
 *                                                                             *
 *                               CRYSTAL17                                     *
 *                      public : 1.0.2 - March 1st, 2018 STFC/Archer2 build    *
 *                       HTTP://WWW.CRYSTAL.UNITO.IT                           *
 *                                                                             *
 *                              MAIN AUTHORS                                   *
 *                                                                             *
 *  R. DOVESI(1,11), V.R. SAUNDERS(2), C. ROETTI(1,11), R. ORLANDO(1,11),      *
 *  C.M. ZICOVICH-WILSON(1,3), F. PASCALE(4), B. CIVALLERI(1,11),              *
 *  K. DOLL(5), N.M. HARRISON(2,6), I.J. BUSH(7), Ph. D'ARCO(8),               *
 *  M. LLUNELL(9), M. CAUSA'(10), Y. NOEL(8), L. MASCHIO(1,11), A. ERBA(1,11)  *
 *  M. RE'RAT(14), S. CASASSA(1,11)                                            *
 *                                                                             *
 *        CONTRIBUTIONS TO THE CODE HAVE ALSO BEEN GIVEN BY                    *
 *                                                                             *
 *  M. FERRABONE(1,11), M. DE LA PIERRE(1,11), M. FERRERO(1,11),               *
 *  J. BAIMA(1,11), E. ALBANESE(1,11), M.F. PEINTINGER(12), R. BAST(13),       *
 *  B. KIRTMAN(15), V. LACIVITA(1,11), R. DEMICHELIS(1,16)                     *
 *  G. BRANDEBURG(17), S. SALUSTRO(1,11), G. SANSONE(1,11)                     *
 *  M.T. RUGGIERO(18)                                                          *
 *                                                                             *
 * (1) THEORETICAL CHEMISTRY GROUP - UNIVERSITA' DI TORINO - TORINO (ITALY)    *
 * (2) COMPUTATIONAL SCIENCE & ENGINEERING DEPARTMENT - STFC DARESBURY (UK)    *
 * (3) UNIVERSIDAD AUTONOMA DEL ESTADO DE MORELOS - CUERNAVACA (MEXICO)        *
 * (4) UNIVERSITE' DE LORRAINE - NANCY (FRANCE)                                *
 * (5) UNIVERSITAET STUTTGART- STUTTGART (GERMANY)                             *
 * (6) IMPERIAL COLLEGE - LONDON (UK)                                          *
 * (7) OXFORD E-RESEARCH CENTRE - OXFORD (UK)                                  *
 * (8) UPMC - SORBONNE UNIVERSITES - PARIS (FRANCE)                            *
 * (9) UNIVERSIDAD DE BARCELONA - BARCELONA (SPAIN)                            *
 *(10) UNIVERSITA' DI NAPOLI "FEDERICO II" - NAPOLI (ITALY)                    *
 *(11) NIS - NANOSTRUCTURED INTERFACES AND SURFACES - TORINO (ITALY)           *
 *(12) MPI FUER CHEMISCHE ENERGIEKONVERSION - MUELHEIM AN DER RUHR (GERMANY)   *
 *(13) UNIVERSITY OF TROMSO - TROMSO (NORWAY)                                  *
 *(14) UNIVERSITE' DE PAU ET DES PAYS DE L'ADOUR - PAU (FRANCE)                *
 *(15) UNIVERSITY OF CALIFORNIA SANTA BARBARA - SANTA BARBARA (USA)            *
 *(16) CURTIN UNIVERSITY - PERTH (AUSTRALIA)                                   *
 *(17) UNIVERSITY COLLEGE LONDON - LONDON (UK)                                 *
 *(18) CAMBRIDGE UNIVERSITY - CAMBRIDGE (UK)                                   *
 *                                                                             *
 *******************************************************************************
 EEEEEEEEEE STARTING  DATE 31 10 2022 TIME 23:40:46.3
 Final                                                                           

 GEOMETRY INPUT FROM EXTERNAL FILE (FORTRAN UNIT 34)
 3D - CRYSTAL 

 *******************************************************************************
 LATTICE PARAMETERS  (ANGSTROMS AND DEGREES) - PRIMITIVE CELL
       A          B          C        ALPHA      BETA     GAMMA        VOLUME
    7.40317    7.40317    8.68504    90.00000  90.00000 120.00000    412.228566
 INFORMATION **** CHKGRP **** SPGR WITH NO INVERSION

 NUMBER OF IRREDUCIBLE ATOMS IN THE CELL:   15

 CARTESIAN COORDINATES (ANGSTROM) - IRREDUCIBLE ATOMS AND SYMMETRY RELATED

 AT.IRR.  AT  AT.N.          X                   Y                   Z
     1     1     6    2.467724141366E+00  2.849482394607E+00  2.605511400000E+00
     2     2     6    3.701586212049E+00  4.986594190562E+00  2.605511400000E+00
     3     3     6    2.467724141366E+00 -1.424741197304E+00  2.605511400000E+00
     4     4     6    3.701586212049E+00  7.123705986520E-01  2.605511400000E+00
     5     5     6    3.701586212049E+00 -3.561852993259E+00  2.605511400000E+00
     6     6     6    6.169310353416E+00  7.123705986520E-01  2.605511400000E+00
     7     7     6    1.233862070683E+00 -7.123705986520E-01  2.605511400000E+00
     8     8     6    2.467724141366E+00  1.424741197304E+00  2.605511400000E+00
     9     9     6    3.701586212049E+00  3.561852993259E+00  2.605511400000E+00
    10    10     6    2.467724141366E+00 -2.849482394607E+00  2.605511400000E+00
    11    11     6    3.701586212049E+00 -7.123705986520E-01  2.605511400000E+00
    12    12     6    4.935448282733E+00  1.424741197304E+00  2.605511400000E+00
    13    13     6    3.701586212049E+00 -4.986594190562E+00  2.605511400000E+00
    14    14     6    4.935448282733E+00 -2.849482394607E+00  2.605511400000E+00
    15    15     6    6.169310353416E+00 -7.123705986520E-01  2.605511400000E+00

 SPACE  GROUP  N.                     :    1
 NUMBER OF SYMMETRY OPERATORS         :    1
 *******************************************************************************
 LATTICE PARAMETERS (ANGSTROMS AND DEGREES) - BOHR = 0.5291772083 ANGSTROM
 PRIMITIVE CELL - CENTRING CODE 1/0 VOLUME=   412.228566 - DENSITY  0.725 g/cm^3
         A              B              C           ALPHA      BETA       GAMMA 
     7.40317242     7.40317242     8.68503800    90.000000  90.000000 120.000000
 *******************************************************************************
 ATOMS IN THE ASYMMETRIC UNIT   15 - ATOMS IN THE UNIT CELL:   15
     ATOM                 X/A                 Y/B                 Z/C    
 *******************************************************************************
      1 T   6 C     1.111111111111E-01 -4.444444444445E-01  3.000000000000E-01
      2 T   6 C     1.111111111111E-01 -1.111111111111E-01  3.000000000000E-01
      3 T   6 C     4.444444444445E-01  2.222222222222E-01  3.000000000000E-01
      4 T   6 C     4.444444444444E-01 -4.444444444444E-01  3.000000000000E-01
      5 T   6 C    -2.222222222222E-01  2.222222222222E-01  3.000000000000E-01
      6 T   6 C    -2.222222222221E-01 -1.111111111110E-01  3.000000000000E-01
      7 T   6 C     2.222222222222E-01  1.111111111111E-01  3.000000000000E-01
      8 T   6 C     2.222222222222E-01  4.444444444445E-01  3.000000000000E-01
      9 T   6 C     2.222222222222E-01 -2.222222222222E-01  3.000000000000E-01
     10 T   6 C    -4.444444444445E-01  1.111111111111E-01  3.000000000000E-01
     11 T   6 C    -4.444444444444E-01  4.444444444444E-01  3.000000000000E-01
     12 T   6 C    -4.444444444443E-01 -2.222222222221E-01  3.000000000000E-01
     13 T   6 C    -1.111111111111E-01  1.111111111111E-01  3.000000000000E-01
     14 T   6 C    -1.111111111110E-01  4.444444444446E-01  3.000000000000E-01
     15 T   6 C    -1.111111111110E-01 -2.222222222221E-01  3.000000000000E-01

 T = ATOM BELONGING TO THE ASYMMETRIC UNIT
 *******************************************************************************
 * GEOMETRY EDITING - INPUT COORDINATES ARE GIVEN IN ANGSTROM         
 *******************************************************************************

 USE OF SYMMETRY WILL BE SUBSEQUENTLY SUSPENDED
 INFORMATION **** NEW DEFAULT **** FINALRUN 4 FOR GEOMETRY OPTIMIZATIONS
 INFORMATION **** NEW DEFAULT **** OPTGEOM OPTIMIZES BOTH ATOMIC COORDINATES AND CELL PARAMETERS
 INFORMATION **** NEW DEFAULT **** TOL. ON ATOMIC DISP TO REDEFINE REF. GEOMETRY: 0.8 Angs
 INFORMATION **** NEW DEFAULT **** N POINTS TO REDEFINE REF. GEOMETRY: N OF OPT DEGS OF FREEDOM
 INFORMATION **** NEW DEFAULT **** TOL. ON ENERGY TO REDEFINE REF. GEOMETRY: 10**-3*(5*N. ATOMS)
 INFORMATION **** ATOMONLY **** ONLY ATOMIC COORDINATES ARE OPTIMIZED

 IMPORTANT INFORMATION:
 THE COORDINATE SYSTEM ADOPTED IN THE OPTIMIZATION IS NOT IN
 GENERAL HOMOGENEOUS UNITS. FOR THIS REASON THE GRADIENT AND 
 HESSIAN MATRIX IN TERMS OF THIS SYSTEM ARE GIVEN WITHOUT
 UNITS. FOR MORE DETAILS SEE THE MANUAL.

 *******************************************************************************
 ATOMIC POSITIONS OPTIMIZATION CONTROL

 INITIAL TRUST RADIUS         0.50000 MAXIMUM TRUST RADIUS               4.00000
 MAXIMUM GRADIENT COMPONENT   0.00045 MAXIMUM DISPLACEMENT COMPONENT     0.00180
 R.M.S. OF GRADIENT COMPONENT 0.00030 R.M.S. OF DISPLACEMENT COMPONENTS  0.00120
 THRESHOLD ON ENERGY CHANGE 0.100E-06 EXTRAPOLATING POLYNOMIAL ORDER           2
 MAXIMUM ALLOWED NUMBER OF STEPS   -1 SORTING OF ENERGY POINTS:               NO
 ANALYTICAL  GRADIENT                 HESSIAN UPDATING                      BFGS
 STEP SIZE NUMERICAL GRADIENT 0.00100
 INITIAL HESSIAN MATRIX: SCHLEGEL MODEL 2
 *******************************************************************************


 GCALCO - MAX INDICES DIRECT LATTICE VECTOR    16    16    12
 NO.OF VECTORS CREATED 6999 STARS  379 RMAX   166.99060 BOHR

 GEOMETRY FOR WAVE FUNCTION - DIMENSIONALITY OF THE SYSTEM    3
 (NON PERIODIC DIRECTION: LATTICE PARAMETER FORMALLY SET TO 500)
 *******************************************************************************
 LATTICE PARAMETERS (ANGSTROMS AND DEGREES) - BOHR = 0.5291772083 ANGSTROM
 PRIMITIVE CELL - CENTRING CODE 1/0 VOLUME=   412.228566 - DENSITY  0.725 g/cm^3
         A              B              C           ALPHA      BETA       GAMMA 
     7.40317242     7.40317242     8.68503800    90.000000  90.000000 120.000000
 *******************************************************************************
 ATOMS IN THE ASYMMETRIC UNIT   15 - ATOMS IN THE UNIT CELL:   15
     ATOM                 X/A                 Y/B                 Z/C    
 *******************************************************************************
      1 T   6 C     1.111111111111E-01 -4.444444444445E-01  3.000000000000E-01
      2 T   6 C     1.111111111111E-01 -1.111111111111E-01  3.000000000000E-01
      3 T   6 C     4.444444444445E-01  2.222222222222E-01  3.000000000000E-01
      4 T   6 C     4.444444444444E-01 -4.444444444444E-01  3.000000000000E-01
      5 T   6 C    -2.222222222222E-01  2.222222222222E-01  3.000000000000E-01
      6 T   6 C    -2.222222222221E-01 -1.111111111110E-01  3.000000000000E-01
      7 T   6 C     2.222222222222E-01  1.111111111111E-01  3.000000000000E-01
      8 T   6 C     2.222222222222E-01  4.444444444445E-01  3.000000000000E-01
      9 T   6 C     2.222222222222E-01 -2.222222222222E-01  3.000000000000E-01
     10 T   6 C    -4.444444444445E-01  1.111111111111E-01  3.000000000000E-01
     11 T   6 C    -4.444444444444E-01  4.444444444444E-01  3.000000000000E-01
     12 T   6 C    -4.444444444443E-01 -2.222222222221E-01  3.000000000000E-01
     13 T   6 C    -1.111111111111E-01  1.111111111111E-01  3.000000000000E-01
     14 T   6 C    -1.111111111110E-01  4.444444444446E-01  3.000000000000E-01
     15 T   6 C    -1.111111111110E-01 -2.222222222221E-01  3.000000000000E-01

 T = ATOM BELONGING TO THE ASYMMETRIC UNIT

 ****    1 SYMMOPS - TRANSLATORS IN FRACTIONAL UNITS
 **** MATRICES AND TRANSLATORS IN THE CRYSTALLOGRAPHIC REFERENCE FRAME
   V INV                    ROTATION MATRICES                   TRANSLATORS
   1   1  1.00  0.00  0.00  0.00  1.00  0.00  0.00  0.00  1.00  0.00  0.00  0.00

 DIRECT LATTICE VECTORS CARTESIAN COMPONENTS (ANGSTROM)
          X                    Y                    Z
   0.370158621205E+01  -0.641133538787E+01   0.000000000000E+00
   0.370158621205E+01   0.641133538787E+01   0.000000000000E+00
   0.000000000000E+00   0.000000000000E+00   0.868503800000E+01


 CARTESIAN COORDINATES - PRIMITIVE CELL
 *******************************************************************************
 *      ATOM          X(ANGSTROM)         Y(ANGSTROM)         Z(ANGSTROM)
 *******************************************************************************
    1     6 C     2.467724141366E+00  2.849482394607E+00  2.605511400000E+00
    2     6 C     3.701586212049E+00  4.986594190562E+00  2.605511400000E+00
    3     6 C     2.467724141366E+00 -1.424741197304E+00  2.605511400000E+00
    4     6 C     3.701586212049E+00  7.123705986520E-01  2.605511400000E+00
    5     6 C     3.701586212049E+00 -3.561852993259E+00  2.605511400000E+00
    6     6 C     6.169310353416E+00  7.123705986520E-01  2.605511400000E+00
    7     6 C     1.233862070683E+00 -7.123705986520E-01  2.605511400000E+00
    8     6 C     2.467724141366E+00  1.424741197304E+00  2.605511400000E+00
    9     6 C     3.701586212049E+00  3.561852993259E+00  2.605511400000E+00
   10     6 C     2.467724141366E+00 -2.849482394607E+00  2.605511400000E+00
   11     6 C     3.701586212049E+00 -7.123705986520E-01  2.605511400000E+00
   12     6 C     4.935448282733E+00  1.424741197304E+00  2.605511400000E+00
   13     6 C     3.701586212049E+00 -4.986594190562E+00  2.605511400000E+00
   14     6 C     4.935448282733E+00 -2.849482394607E+00  2.605511400000E+00
   15     6 C     6.169310353416E+00 -7.123705986520E-01  2.605511400000E+00

 *******************************************************************************
 LOCAL ATOMIC FUNCTIONS BASIS SET
 *******************************************************************************
   ATOM   X(AU)   Y(AU)   Z(AU)  N. TYPE  EXPONENT  S COEF   P COEF   D/F/G COEF
 *******************************************************************************
   1 C    4.663   5.385   4.924
                                  1 S  
                                         1.358E+04 2.225E-04 0.000E+00 0.000E+00
                                         2.035E+03 1.723E-03 0.000E+00 0.000E+00
                                         4.632E+02 8.926E-03 0.000E+00 0.000E+00
                                         1.312E+02 3.573E-02 0.000E+00 0.000E+00
                                         4.285E+01 1.108E-01 0.000E+00 0.000E+00
                                         1.558E+01 2.430E-01 0.000E+00 0.000E+00
                                  2 S  
                                         6.207E+00 4.144E-01 0.000E+00 0.000E+00
                                         2.576E+00 2.374E-01 0.000E+00 0.000E+00
                                  3 S  
                                         4.941E-01 1.000E+00 0.000E+00 0.000E+00
                                  4 S  
                                         1.644E-01 1.000E+00 0.000E+00 0.000E+00
                           5-     7 P  
                                         3.470E+01 0.000E+00 5.333E-03 0.000E+00
                                         7.958E+00 0.000E+00 3.586E-02 0.000E+00
                                         2.378E+00 0.000E+00 1.422E-01 0.000E+00
                                         8.143E-01 0.000E+00 3.427E-01 0.000E+00
                           8-    10 P  
                                         5.662E-01 0.000E+00 1.000E+00 0.000E+00
                          11-    13 P  
                                         1.974E-01 0.000E+00 1.000E+00 0.000E+00
                          14-    18 D  
                                         5.792E-01 0.000E+00 0.000E+00 1.000E+00
   2 C    6.995   9.423   4.924
   3 C    4.663  -2.692   4.924
   4 C    6.995   1.346   4.924
   5 C    6.995  -6.731   4.924
   6 C   11.658   1.346   4.924
   7 C    2.332  -1.346   4.924
   8 C    4.663   2.692   4.924
   9 C    6.995   6.731   4.924
  10 C    4.663  -5.385   4.924
  11 C    6.995  -1.346   4.924
  12 C    9.327   2.692   4.924
  13 C    6.995  -9.423   4.924
  14 C    9.327  -5.385   4.924
  15 C   11.658  -1.346   4.924
 INFORMATION **** SET_MPP **** PCRYSTAL CALCULATION
 INFORMATION **** READM2 **** NEW DEFAULT: FOCK/KS MATRIX MIXING SET TO 30 %
 INFORMATION **** READM2 **** NEW DEFAULT: FULL DIRECT SCF MODE
 INFORMATION **** READM2 **** NEW DEFAULT: COULOMB BIPOLAR BUFFER SET TO 32 Mb
 INFORMATION **** READM2 **** NEW DEFAULT: EXCHANGE BIPOLAR BUFFER SET TO 32 Mb

 *******************************************************************************
 NEW DEFAULT: DFT INTEGRATION GRID INCREASED TO XLGRID
 NEW DEFAULT: DIIS ACCELERATOR ACTIVE
 USE KEYWORD NODIIS TO TURN IT OFF
 *******************************************************************************

 INFORMATION **** TOLINTEG **** COULOMB AND EXCHANGE SERIES TOLERANCES MODIFIED
 INFORMATION **** READM2 **** FULL DIRECT SCF (MONO AND BIEL INT) SELECTED
 INFORMATION **** MAXCYCLE **** MAX NUMBER OF SCF CYCLES SET TO         200
 INFORMATION **** TOLDEE **** SCF TOL ON TOTAL ENERGY SET TO           9
 *******************************************************************************
 N. OF ATOMS PER CELL        15  COULOMB OVERLAP TOL         (T1) 10**   -8
 NUMBER OF SHELLS           120  COULOMB PENETRATION TOL     (T2) 10**   -8
 NUMBER OF AO               270  EXCHANGE OVERLAP TOL        (T3) 10**   20
 N. OF ELECTRONS PER CELL    90  EXCHANGE PSEUDO OVP (F(G))  (T4) 10**   20
 CORE ELECTRONS PER CELL     30  EXCHANGE PSEUDO OVP (P(G))  (T5) 10**   20
 N. OF SYMMETRY OPERATORS     1  POLE ORDER IN MONO ZONE                  4
 *******************************************************************************
 TYPE OF CALCULATION :  RESTRICTED CLOSED SHELL
 KOHN-SHAM HAMILTONIAN

 (EXCHANGE)[CORRELATION] FUNCTIONAL:(PERDEW-BURKE-ERNZERHOF)[PERDEW-BURKE-ERNZERHOF]


 CAPPA:IS1  8;IS2  8;IS3  8; K PTS MONK NET 260; SYMMOPS:K SPACE   2;G SPACE   1

 *******************************************************************************
 MAX NUMBER OF SCF CYCLES     200  CONVERGENCE ON DELTAP        10**-19
 WEIGHT OF F(I) IN F(I+1)      30% CONVERGENCE ON ENERGY        10**- 9
 SHRINK. FACT.(MONKH.)    8  8  8  NUMBER OF K POINTS IN THE IBZ    260
 SHRINKING FACTOR(GILAT NET)   16  NUMBER OF K POINTS(GILAT NET)   2052
 *******************************************************************************
 *** K POINTS COORDINATES (OBLIQUE COORDINATES IN UNITS OF IS =  8)
   1-R(  0  0  0)   2-C(  1  0  0)   3-C(  2  0  0)   4-C(  3  0  0)
   5-R(  4  0  0)   6-C(  0  1  0)   7-C(  1  1  0)   8-C(  2  1  0)
   9-C(  3  1  0)  10-C(  4  1  0)  11-C(  5  1  0)  12-C(  6  1  0)
  13-C(  7  1  0)  14-C(  0  2  0)  15-C(  1  2  0)  16-C(  2  2  0)
  17-C(  3  2  0)  18-C(  4  2  0)  19-C(  5  2  0)  20-C(  6  2  0)
  21-C(  7  2  0)  22-C(  0  3  0)  23-C(  1  3  0)  24-C(  2  3  0)
  25-C(  3  3  0)  26-C(  4  3  0)  27-C(  5  3  0)  28-C(  6  3  0)
  29-C(  7  3  0)  30-R(  0  4  0)  31-C(  1  4  0)  32-C(  2  4  0)
  33-C(  3  4  0)  34-R(  4  4  0)  35-C(  0  0  1)  36-C(  1  0  1)
  37-C(  2  0  1)  38-C(  3  0  1)  39-C(  4  0  1)  40-C(  5  0  1)
  41-C(  6  0  1)  42-C(  7  0  1)  43-C(  0  1  1)  44-C(  1  1  1)
  45-C(  2  1  1)  46-C(  3  1  1)  47-C(  4  1  1)  48-C(  5  1  1)
  49-C(  6  1  1)  50-C(  7  1  1)  51-C(  0  2  1)  52-C(  1  2  1)
  53-C(  2  2  1)  54-C(  3  2  1)  55-C(  4  2  1)  56-C(  5  2  1)
  57-C(  6  2  1)  58-C(  7  2  1)  59-C(  0  3  1)  60-C(  1  3  1)
  61-C(  2  3  1)  62-C(  3  3  1)  63-C(  4  3  1)  64-C(  5  3  1)
  65-C(  6  3  1)  66-C(  7  3  1)  67-C(  0  4  1)  68-C(  1  4  1)
  69-C(  2  4  1)  70-C(  3  4  1)  71-C(  4  4  1)  72-C(  5  4  1)
  73-C(  6  4  1)  74-C(  7  4  1)  75-C(  0  5  1)  76-C(  1  5  1)
  77-C(  2  5  1)  78-C(  3  5  1)  79-C(  4  5  1)  80-C(  5  5  1)
  81-C(  6  5  1)  82-C(  7  5  1)  83-C(  0  6  1)  84-C(  1  6  1)
  85-C(  2  6  1)  86-C(  3  6  1)  87-C(  4  6  1)  88-C(  5  6  1)
  89-C(  6  6  1)  90-C(  7  6  1)  91-C(  0  7  1)  92-C(  1  7  1)
  93-C(  2  7  1)  94-C(  3  7  1)  95-C(  4  7  1)  96-C(  5  7  1)
  97-C(  6  7  1)  98-C(  7  7  1)  99-C(  0  0  2) 100-C(  1  0  2)
 101-C(  2  0  2) 102-C(  3  0  2) 103-C(  4  0  2) 104-C(  5  0  2)
 105-C(  6  0  2) 106-C(  7  0  2) 107-C(  0  1  2) 108-C(  1  1  2)
 109-C(  2  1  2) 110-C(  3  1  2) 111-C(  4  1  2) 112-C(  5  1  2)
 113-C(  6  1  2) 114-C(  7  1  2) 115-C(  0  2  2) 116-C(  1  2  2)
 117-C(  2  2  2) 118-C(  3  2  2) 119-C(  4  2  2) 120-C(  5  2  2)
 121-C(  6  2  2) 122-C(  7  2  2) 123-C(  0  3  2) 124-C(  1  3  2)
 125-C(  2  3  2) 126-C(  3  3  2) 127-C(  4  3  2) 128-C(  5  3  2)
 129-C(  6  3  2) 130-C(  7  3  2) 131-C(  0  4  2) 132-C(  1  4  2)
 133-C(  2  4  2) 134-C(  3  4  2) 135-C(  4  4  2) 136-C(  5  4  2)
 137-C(  6  4  2) 138-C(  7  4  2) 139-C(  0  5  2) 140-C(  1  5  2)
 141-C(  2  5  2) 142-C(  3  5  2) 143-C(  4  5  2) 144-C(  5  5  2)
 145-C(  6  5  2) 146-C(  7  5  2) 147-C(  0  6  2) 148-C(  1  6  2)
 149-C(  2  6  2) 150-C(  3  6  2) 151-C(  4  6  2) 152-C(  5  6  2)
 153-C(  6  6  2) 154-C(  7  6  2) 155-C(  0  7  2) 156-C(  1  7  2)
 157-C(  2  7  2) 158-C(  3  7  2) 159-C(  4  7  2) 160-C(  5  7  2)
 161-C(  6  7  2) 162-C(  7  7  2) 163-C(  0  0  3) 164-C(  1  0  3)
 165-C(  2  0  3) 166-C(  3  0  3) 167-C(  4  0  3) 168-C(  5  0  3)
 169-C(  6  0  3) 170-C(  7  0  3) 171-C(  0  1  3) 172-C(  1  1  3)
 173-C(  2  1  3) 174-C(  3  1  3) 175-C(  4  1  3) 176-C(  5  1  3)
 177-C(  6  1  3) 178-C(  7  1  3) 179-C(  0  2  3) 180-C(  1  2  3)
 181-C(  2  2  3) 182-C(  3  2  3) 183-C(  4  2  3) 184-C(  5  2  3)
 185-C(  6  2  3) 186-C(  7  2  3) 187-C(  0  3  3) 188-C(  1  3  3)
 189-C(  2  3  3) 190-C(  3  3  3) 191-C(  4  3  3) 192-C(  5  3  3)
 193-C(  6  3  3) 194-C(  7  3  3) 195-C(  0  4  3) 196-C(  1  4  3)
 197-C(  2  4  3) 198-C(  3  4  3) 199-C(  4  4  3) 200-C(  5  4  3)
 201-C(  6  4  3) 202-C(  7  4  3) 203-C(  0  5  3) 204-C(  1  5  3)
 205-C(  2  5  3) 206-C(  3  5  3) 207-C(  4  5  3) 208-C(  5  5  3)
 209-C(  6  5  3) 210-C(  7  5  3) 211-C(  0  6  3) 212-C(  1  6  3)
 213-C(  2  6  3) 214-C(  3  6  3) 215-C(  4  6  3) 216-C(  5  6  3)
 217-C(  6  6  3) 218-C(  7  6  3) 219-C(  0  7  3) 220-C(  1  7  3)
 221-C(  2  7  3) 222-C(  3  7  3) 223-C(  4  7  3) 224-C(  5  7  3)
 225-C(  6  7  3) 226-C(  7  7  3) 227-R(  0  0  4) 228-C(  1  0  4)
 229-C(  2  0  4) 230-C(  3  0  4) 231-R(  4  0  4) 232-C(  0  1  4)
 233-C(  1  1  4) 234-C(  2  1  4) 235-C(  3  1  4) 236-C(  4  1  4)
 237-C(  5  1  4) 238-C(  6  1  4) 239-C(  7  1  4) 240-C(  0  2  4)
 241-C(  1  2  4) 242-C(  2  2  4) 243-C(  3  2  4) 244-C(  4  2  4)
 245-C(  5  2  4) 246-C(  6  2  4) 247-C(  7  2  4) 248-C(  0  3  4)
 249-C(  1  3  4) 250-C(  2  3  4) 251-C(  3  3  4) 252-C(  4  3  4)
 253-C(  5  3  4) 254-C(  6  3  4) 255-C(  7  3  4) 256-R(  0  4  4)
 257-C(  1  4  4) 258-C(  2  4  4) 259-C(  3  4  4) 260-R(  4  4  4)

 DIRECT LATTICE VECTORS COMPON. (A.U.)     RECIP. LATTICE VECTORS COMPON. (A.U.) 
        X            Y            Z              X            Y            Z
    6.9949842  -12.1156680    0.0000000      0.4491208   -0.2593000    0.0000000
    6.9949842   12.1156680    0.0000000      0.4491208    0.2593000   -0.0000000
    0.0000000    0.0000000   16.4123433     -0.0000000    0.0000000    0.3828329

 DISK SPACE FOR EIGENVECTORS (FTN 10)    37324800 REALS

 SYMMETRY ADAPTION OF THE BLOCH FUNCTIONS DISABLED
 TTTTTTTTTTTTTTTTTTTTTTTTTTTTTT gordsh1     TELAPSE        2.54 TCPU        0.98

 MATRIX SIZE: P(G)  110232, F(G)   55296, P(G) IRR   55581, F(G) IRR   55581
 MAX G-VECTOR INDEX FOR 1- AND 2-ELECTRON INTEGRALS  27

 TTTTTTTTTTTTTTTTTTTTTTTTTTTTTT INPUT       TELAPSE        2.55 TCPU        0.98

 NEIGHBORS OF THE NON-EQUIVALENT ATOMS

 N = NUMBER OF NEIGHBORS AT DISTANCE R
    ATOM  N     R/ANG      R/AU   NEIGHBORS (ATOM LABELS AND CELL INDICES)
   1 C    3     1.4247     2.6924    8 C    0 0 0    9 C    0 0 0   14 C   -1 0 0
   1 C    3     2.4677     4.6633    2 C    0 0 0    4 C    0 0 0    5 C   -1 0 0
   1 C    3     2.8495     5.3847   12 C    0 0 0   13 C   -1 0 0   15 C   -1 0 0
   1 C    6     3.7695     7.1233    7 C    0 0 0    7 C    0 1 0   10 C   -1 0 0
                                    10 C    0 1 0   11 C    0 0 0   11 C   -1 0 0
   1 C    6     4.2742     8.0771    3 C    0 0 0    3 C   -1 0 0    3 C    0 1 0
                                     6 C    0 0 0    6 C   -1-1 0    6 C   -1 0 0
   1 C    3     4.9354     9.3266    2 C    0-1 0    4 C   -1 0 0    5 C    0 1 0

   2 C    3     1.4247     2.6924    7 C    0 1 0    9 C    0 0 0   15 C   -1 0 0
   2 C    3     2.4677     4.6633    1 C    0 0 0    3 C    0 1 0    6 C   -1 0 0
   2 C    3     2.8495     5.3847   10 C    0 1 0   13 C   -1 1 0   14 C   -1 0 0
   2 C    6     3.7695     7.1233    8 C    0 0 0    8 C    0 1 0   11 C   -1 0 0
                                    11 C    0 1 0   12 C    0 0 0   12 C   -1 0 0
   2 C    6     4.2742     8.0771    4 C    0 0 0    4 C   -1 0 0    4 C    0 1 0
                                     5 C   -1 0 0    5 C    0 1 0    5 C   -1 1 0
   2 C    3     4.9354     9.3266    1 C    0 1 0    3 C   -1 0 0    6 C    0 0 0

   3 C    3     1.4247     2.6924    7 C    0 0 0   10 C    0 0 0   11 C    0 0 0
   3 C    3     2.4677     4.6633    2 C    0-1 0    4 C    0 0 0    5 C    0 0 0
   3 C    3     2.8495     5.3847    8 C    0 0 0    9 C    0-1 0   14 C    0 0 0
   3 C    6     3.7695     7.1233   12 C    0 0 0   12 C    0-1 0   13 C    0 0 0
                                    13 C   -1 0 0   15 C    0 0 0   15 C   -1-1 0
   3 C    6     4.2742     8.0771    1 C    0 0 0    1 C    1 0 0    1 C    0-1 0
                                     6 C    0 0 0    6 C   -1-1 0    6 C    0-1 0
   3 C    3     4.9354     9.3266    2 C    1 0 0    4 C    0-1 0    5 C   -1 0 0

   4 C    3     1.4247     2.6924    8 C    0 0 0   11 C    0 0 0   12 C    0 0 0
   4 C    3     2.4677     4.6633    1 C    0 0 0    3 C    0 0 0    6 C    0 0 0
   4 C    3     2.8495     5.3847    7 C    0 0 0    9 C    0 0 0   15 C    0 0 0
   4 C    6     3.7695     7.1233   10 C    0 0 0   10 C    0 1 0   13 C   -1 0 0
                                    13 C    0 1 0   14 C    0 0 0   14 C   -1 0 0
   4 C    6     4.2742     8.0771    2 C    0 0 0    2 C    1 0 0    2 C    0-1 0
                                     5 C    0 0 0    5 C   -1 0 0    5 C    0 1 0
   4 C    3     4.9354     9.3266    1 C    1 0 0    3 C    0 1 0    6 C   -1-1 0

   5 C    3     1.4247     2.6924   10 C    0 0 0   13 C    0 0 0   14 C    0 0 0
   5 C    3     2.4677     4.6633    1 C    1 0 0    3 C    0 0 0    6 C    0-1 0
   5 C    3     2.8495     5.3847    8 C    1 0 0   11 C    0 0 0   12 C    0-1 0
   5 C    6     3.7695     7.1233    7 C    0 0 0    7 C    1 0 0    9 C    1 0 0
                                     9 C    0-1 0   15 C    0 0 0   15 C    0-1 0
   5 C    6     4.2742     8.0771    2 C    1 0 0    2 C    0-1 0    2 C    1-1 0
                                     4 C    0 0 0    4 C    1 0 0    4 C    0-1 0
   5 C    3     4.9354     9.3266    1 C    0-1 0    3 C    1 0 0    6 C    0 0 0

   6 C    3     1.4247     2.6924   12 C    0 0 0   13 C    0 1 0   15 C    0 0 0
   6 C    3     2.4677     4.6633    2 C    1 0 0    4 C    0 0 0    5 C    0 1 0
   6 C    3     2.8495     5.3847    7 C    1 1 0   10 C    0 1 0   11 C    0 0 0
   6 C    6     3.7695     7.1233    8 C    0 0 0    8 C    1 1 0    9 C    0 0 0
                                     9 C    1 0 0   14 C    0 0 0   14 C    0 1 0
   6 C    6     4.2742     8.0771    1 C    0 0 0    1 C    1 1 0    1 C    1 0 0
                                     3 C    0 0 0    3 C    1 1 0    3 C    0 1 0
   6 C    3     4.9354     9.3266    2 C    0 0 0    4 C    1 1 0    5 C    0 0 0

   7 C    2     1.4247     2.6924    2 C    0-1 0    3 C    0 0 0
   7 C    6     2.4677     4.6633    8 C    0 0 0    9 C    0-1 0   10 C    0 0 0
                                    11 C    0 0 0   13 C   -1 0 0   15 C   -1-1 0
   7 C    2     2.8495     5.3847    4 C    0 0 0    6 C   -1-1 0
   7 C    4     3.7695     7.1233    1 C    0 0 0    1 C    0-1 0    5 C    0 0 0
                                     5 C   -1 0 0
   7 C    6     4.2742     8.0771   12 C    0 0 0   12 C   -1-1 0   12 C    0-1 0
                                    14 C    0 0 0   14 C   -1-1 0   14 C   -1 0 0
   7 C    6     4.9354     9.3266    8 C    0-1 0    9 C    0 0 0   10 C   -1 0 0
                                    11 C   -1-1 0   13 C    0 0 0   15 C    0 0 0

   8 C    2     1.4247     2.6924    1 C    0 0 0    4 C    0 0 0
   8 C    6     2.4677     4.6633    7 C    0 0 0    9 C    0 0 0   11 C    0 0 0
                                    12 C    0 0 0   13 C   -1 0 0   14 C   -1 0 0
   8 C    2     2.8495     5.3847    3 C    0 0 0    5 C   -1 0 0
   8 C    4     3.7695     7.1233    2 C    0 0 0    2 C    0-1 0    6 C    0 0 0
                                     6 C   -1-1 0
   8 C    6     4.2742     8.0771   10 C    0 0 0   10 C   -1 0 0   10 C    0 1 0
                                    15 C    0 0 0   15 C   -1-1 0   15 C   -1 0 0
   8 C    6     4.9354     9.3266    7 C    0 1 0    9 C    0-1 0   11 C   -1 0 0
                                    12 C   -1-1 0   13 C    0 1 0   14 C    0 0 0

   9 C    2     1.4247     2.6924    1 C    0 0 0    2 C    0 0 0
   9 C    6     2.4677     4.6633    7 C    0 1 0    8 C    0 0 0   10 C    0 1 0
                                    12 C    0 0 0   14 C   -1 0 0   15 C   -1 0 0
   9 C    2     2.8495     5.3847    3 C    0 1 0    4 C    0 0 0
   9 C    4     3.7695     7.1233    5 C   -1 0 0    5 C    0 1 0    6 C    0 0 0
                                     6 C   -1 0 0
   9 C    6     4.2742     8.0771   11 C    0 0 0   11 C   -1 0 0   11 C    0 1 0
                                    13 C   -1 0 0   13 C    0 1 0   13 C   -1 1 0
   9 C    6     4.9354     9.3266    7 C    0 0 0    8 C    0 1 0   10 C   -1 0 0
                                    12 C   -1 0 0   14 C    0 1 0   15 C    0 0 0

  10 C    2     1.4247     2.6924    3 C    0 0 0    5 C    0 0 0
  10 C    6     2.4677     4.6633    7 C    0 0 0    9 C    0-1 0   11 C    0 0 0
                                    12 C    0-1 0   13 C    0 0 0   14 C    0 0 0
  10 C    2     2.8495     5.3847    2 C    0-1 0    6 C    0-1 0
  10 C    4     3.7695     7.1233    1 C    1 0 0    1 C    0-1 0    4 C    0 0 0
                                     4 C    0-1 0
  10 C    6     4.2742     8.0771    8 C    0 0 0    8 C    1 0 0    8 C    0-1 0
                                    15 C    0 0 0   15 C   -1-1 0   15 C    0-1 0
  10 C    6     4.9354     9.3266    7 C    1 0 0    9 C    1 0 0   11 C    0-1 0
                                    12 C    0 0 0   13 C   -1 0 0   14 C   -1-1 0

  11 C    2     1.4247     2.6924    3 C    0 0 0    4 C    0 0 0
  11 C    6     2.4677     4.6633    7 C    0 0 0    8 C    0 0 0   10 C    0 0 0
                                    12 C    0 0 0   14 C    0 0 0   15 C    0 0 0
  11 C    2     2.8495     5.3847    5 C    0 0 0    6 C    0 0 0
  11 C    4     3.7695     7.1233    1 C    0 0 0    1 C    1 0 0    2 C    1 0 0
                                     2 C    0-1 0
  11 C    6     4.2742     8.0771    9 C    0 0 0    9 C    1 0 0    9 C    0-1 0
                                    13 C    0 0 0   13 C   -1 0 0   13 C    0 1 0
  11 C    6     4.9354     9.3266    7 C    1 1 0    8 C    1 0 0   10 C    0 1 0
                                    12 C    0-1 0   14 C   -1 0 0   15 C   -1-1 0

  12 C    2     1.4247     2.6924    4 C    0 0 0    6 C    0 0 0
  12 C    6     2.4677     4.6633    8 C    0 0 0    9 C    0 0 0   10 C    0 1 0
                                    11 C    0 0 0   13 C    0 1 0   15 C    0 0 0
  12 C    2     2.8495     5.3847    1 C    0 0 0    5 C    0 1 0
  12 C    4     3.7695     7.1233    2 C    0 0 0    2 C    1 0 0    3 C    0 0 0
                                     3 C    0 1 0
  12 C    6     4.2742     8.0771    7 C    0 0 0    7 C    1 1 0    7 C    0 1 0
                                    14 C    0 0 0   14 C   -1 0 0   14 C    0 1 0
  12 C    6     4.9354     9.3266    8 C    1 1 0    9 C    1 0 0   10 C    0 0 0
                                    11 C    0 1 0   13 C   -1 0 0   15 C   -1 0 0

  13 C    2     1.4247     2.6924    5 C    0 0 0    6 C    0-1 0
  13 C    6     2.4677     4.6633    7 C    1 0 0    8 C    1 0 0   10 C    0 0 0
                                    12 C    0-1 0   14 C    0 0 0   15 C    0-1 0
  13 C    2     2.8495     5.3847    1 C    1 0 0    2 C    1-1 0
  13 C    4     3.7695     7.1233    3 C    0 0 0    3 C    1 0 0    4 C    1 0 0
                                     4 C    0-1 0
  13 C    6     4.2742     8.0771    9 C    1 0 0    9 C    0-1 0    9 C    1-1 0
                                    11 C    0 0 0   11 C    1 0 0   11 C    0-1 0
  13 C    6     4.9354     9.3266    7 C    0 0 0    8 C    0-1 0   10 C    1 0 0
                                    12 C    1 0 0   14 C    0-1 0   15 C    0 0 0

  14 C    2     1.4247     2.6924    1 C    1 0 0    5 C    0 0 0
  14 C    6     2.4677     4.6633    8 C    1 0 0    9 C    1 0 0   10 C    0 0 0
                                    11 C    0 0 0   13 C    0 0 0   15 C    0 0 0
  14 C    2     2.8495     5.3847    2 C    1 0 0    3 C    0 0 0
  14 C    4     3.7695     7.1233    4 C    0 0 0    4 C    1 0 0    6 C    0 0 0
                                     6 C    0-1 0
  14 C    6     4.2742     8.0771    7 C    0 0 0    7 C    1 1 0    7 C    1 0 0
                                    12 C    0 0 0   12 C    1 0 0   12 C    0-1 0
  14 C    6     4.9354     9.3266    8 C    0 0 0    9 C    0-1 0   10 C    1 1 0
                                    11 C    1 0 0   13 C    0 1 0   15 C    0-1 0

  15 C    2     1.4247     2.6924    2 C    1 0 0    6 C    0 0 0
  15 C    6     2.4677     4.6633    7 C    1 1 0    9 C    1 0 0   11 C    0 0 0
                                    12 C    0 0 0   13 C    0 1 0   14 C    0 0 0
  15 C    2     2.8495     5.3847    1 C    1 0 0    4 C    0 0 0
  15 C    4     3.7695     7.1233    3 C    0 0 0    3 C    1 1 0    5 C    0 0 0
                                     5 C    0 1 0
  15 C    6     4.2742     8.0771    8 C    0 0 0    8 C    1 1 0    8 C    1 0 0
                                    10 C    0 0 0   10 C    1 1 0   10 C    0 1 0
  15 C    6     4.9354     9.3266    7 C    0 0 0    9 C    0 0 0   11 C    1 1 0
                                    12 C    1 0 0   13 C    0 0 0   14 C    0 1 0


 SYMMETRY ALLOWED INTERNAL DEGREE(S) OF FREEDOM:  42
 TTTTTTTTTTTTTTTTTTTTTTTTTTTTTT SYMM        TELAPSE        2.55 TCPU        0.98
 TTTTTTTTTTTTTTTTTTTTTTTTTTTTTT INT_SCREEN  TELAPSE        2.55 TCPU        0.99

 *******************************************************************************
 *                             OPTIMIZATION STARTS                             *
 *******************************************************************************
 RECLASIFICATION OF INDICES FOR INTEGRAL CALC ACCORDING TO DIFFERENT CRITERIA:
           FIXDELTE                  FIXDELTX              FIXDELTN
          0.10000000               0.80000000                 42
 DEFAULT MAX NUM OF POINTS  100
 *******************************************************************************

 *******************************************************************************
 COORDINATE OPTIMIZATION - POINT    1
 INFORMATION **** EXCBUF **** EXCH. BIPO BUFFER: WORDS USED =           0

 DFT PARAMETERS

     ATOM       ELECTRONS   NET CHARGE   R(ANGSTROM)
   1   6  C       6.0000      0.0000     0.77000000

 SIZE OF GRID=     505494
 TTTTTTTTTTTTTTTTTTTTTTTTTTTTTT MAKE_GRID2  TELAPSE        2.91 TCPU        1.34
 BECKE WEIGHT FUNCTION
 RADSAFE =     2.00
 TOLERANCES - DENSITY:10**- 6; POTENTIAL:10**- 9; GRID WGT:10**-14

 RADIAL INTEGRATION  - INTERVALS (POINTS,UPPER LIMIT):            1( 75,  4.0*R)

 ANGULAR INTEGRATION - INTERVALS (ACCURACY LEVEL [N. POINTS] UPPER LIMIT):
  1(  4[  86]   0.2)  2(  8[ 194]   0.5)  3( 12[ 350]   0.9)  4( 16[ 974]   3.5)
  5( 12[ 350]9999.0)
 TTTTTTTTTTTTTTTTTTTTTTTTTTTTTT INT_CALC    TELAPSE        2.93 TCPU        1.36

 *******************************************************************************
 Final                                                                           
 CRYSTAL - SCF - TYPE OF CALCULATION :  RESTRICTED CLOSED SHELL
 *******************************************************************************

 CAPPA:IS1  8;IS2  8;IS3  8; K PTS MONK NET 260; SYMMOPS:K SPACE   2;G SPACE   1

 TTTTTTTTTTTTTTTTTTTTTTTTTTTTTT SDIK        TELAPSE        2.99 TCPU        1.42

 AAAAAAAAAAAAAAAAAAAAAAAAAAAAAAAAAAAAAAAAAAAAAAAAAAAAAAAAAAAAAAAAAAAAAAAAAAAAAAA
         ATOMIC WAVEFUNCTION(S)


 NUCLEAR CHARGE  6.0  SYMMETRY SPECIES            S    P
 N. ELECTRONS    6.0  NUMBER OF PRIMITIVE GTOS   10    6
                      NUMBER OF CONTRACTED GTOS   4    3
                      NUMBER OF CLOSED SHELLS     2    0
                      OPEN SHELL OCCUPATION       0    2

  ZNUC SCFIT  TOTAL HF ENERGY   KINETIC ENERGY   VIRIAL THEOREM ACCURACY
   6.0  10   -3.768111494E+01  3.771190961E+01 -1.999183423E+00  3.4E-06

 AAAAAAAAAAAAAAAAAAAAAAAAAAAAAAAAAAAAAAAAAAAAAAAAAAAAAAAAAAAAAAAAAAAAAAAAAAAAAAA

 CHARGE NORMALIZATION FACTOR   1.00000000
 TOTAL ATOMIC CHARGES:
   6.0000000   6.0000000   6.0000000   6.0000000   6.0000000   6.0000000
   6.0000000   6.0000000   6.0000000   6.0000000   6.0000000   6.0000000
   6.0000000   6.0000000   6.0000000
 TTTTTTTTTTTTTTTTTTTTTTTTTTTTTT MOQGAD      TELAPSE        3.00 TCPU        1.43
 TTTTTTTTTTTTTTTTTTTTTTTTTTTTTT SHELLXN     TELAPSE        3.54 TCPU        1.97
 TTTTTTTTTTTTTTTTTTTTTTTTTTTTTT MONMO3      TELAPSE        3.69 TCPU        2.12
 NUMERICALLY INTEGRATED DENSITY     89.9998030617
 TTTTTTTTTTTTTTTTTTTTTTTTTTTTTT NUMDFT      TELAPSE        3.84 TCPU        2.27
 CYC   0 ETOT(AU) -5.736108720861E+02 DETOT -5.74E+02 tst  0.00E+00 PX  1.00E+00
 TTTTTTTTTTTTTTTTTTTTTTTTTTTTTT DIIS        TELAPSE        3.85 TCPU        2.28
 TTTTTTTTTTTTTTTTTTTTTTTTTTTTTT FDIK        TELAPSE        4.02 TCPU        2.44
 POSSIBLY CONDUCTING STATE - EFERMI(AU) -2.2167220E-01 (RES. CHARGE  1.71E-13;IT. 18)
 TTTTTTTTTTTTTTTTTTTTTTTTTTTTTT PDIG        TELAPSE        4.14 TCPU        2.57
 CHARGE NORMALIZATION FACTOR   1.00000000
 TOTAL ATOMIC CHARGES:
   6.1302561   6.1302555   6.1302572   6.1302541   6.1302510   6.1302550
   5.9102702   5.9146094   5.9146079   5.9146099   5.9146091   5.9102718
   5.9146111   5.9102727   5.9146091
 TTTTTTTTTTTTTTTTTTTTTTTTTTTTTT MOQGAD      TELAPSE        4.14 TCPU        2.57
 TTTTTTTTTTTTTTTTTTTTTTTTTTTTTT SHELLXN     TELAPSE        4.79 TCPU        3.21
 TTTTTTTTTTTTTTTTTTTTTTTTTTTTTT MONMO3      TELAPSE        4.94 TCPU        3.36
 NUMERICALLY INTEGRATED DENSITY     89.9998318519
 TTTTTTTTTTTTTTTTTTTTTTTTTTTTTT NUMDFT      TELAPSE        5.29 TCPU        3.71
 CYC   1 ETOT(AU) -5.701580017656E+02 DETOT  3.45E+00 tst  0.00E+00 PX  1.00E+00
 TTTTTTTTTTTTTTTTTTTTTTTTTTTTTT DIIS        TELAPSE        5.31 TCPU        3.74
 DIIS TEST: 0.66989E+00 AT SCF   CYCLE   1 - MIX   30 %
 TTTTTTTTTTTTTTTTTTTTTTTTTTTTTT FDIK        TELAPSE        5.48 TCPU        3.90
 POSSIBLY CONDUCTING STATE - EFERMI(AU) -1.8463025E-01 (RES. CHARGE  2.37E-10;IT. 14)
 TTTTTTTTTTTTTTTTTTTTTTTTTTTTTT PDIG        TELAPSE        5.63 TCPU        4.05
 CHARGE NORMALIZATION FACTOR   1.00000000
 TOTAL ATOMIC CHARGES:
   5.6968619   5.6968612   5.6968630   5.6968597   5.6968562   5.6968606
   6.2118619   6.1972090   6.1972051   6.1972074   6.1972077   6.2118631
   6.1972099   6.2118650   6.1972083
 TTTTTTTTTTTTTTTTTTTTTTTTTTTTTT MOQGAD      TELAPSE        5.63 TCPU        4.05
 TTTTTTTTTTTTTTTTTTTTTTTTTTTTTT SHELLXN     TELAPSE        6.27 TCPU        4.69
 TTTTTTTTTTTTTTTTTTTTTTTTTTTTTT MONMO3      TELAPSE        6.42 TCPU        4.84
 NUMERICALLY INTEGRATED DENSITY     89.9998056900
 TTTTTTTTTTTTTTTTTTTTTTTTTTTTTT NUMDFT      TELAPSE        6.78 TCPU        5.20
 CYC   2 ETOT(AU) -5.701893421647E+02 DETOT -3.13E-02 tst  9.52E-03 PX  8.97E-02
 TTTTTTTTTTTTTTTTTTTTTTTTTTTTTT DIIS        TELAPSE        6.79 TCPU        5.21
 DIIS TEST: 0.58146E+00 AT SCF   CYCLE   2 - DIIS ACTIVE - HISTORY:     2 CYCLES
 TTTTTTTTTTTTTTTTTTTTTTTTTTTTTT FDIK        TELAPSE        6.96 TCPU        5.37
 POSSIBLY CONDUCTING STATE - EFERMI(AU) -1.6916498E-01 (RES. CHARGE  6.17E-10;IT. 12)
 TTTTTTTTTTTTTTTTTTTTTTTTTTTTTT PDIG        TELAPSE        7.10 TCPU        5.51
 CHARGE NORMALIZATION FACTOR   1.00000000
 TOTAL ATOMIC CHARGES:
   6.0082976   6.0082971   6.0082990   6.0082954   6.0082922   6.0082963
   5.9742645   6.0045668   6.0045724   6.0045754   6.0045690   5.9742697
   6.0045708   5.9742662   6.0045677
 TTTTTTTTTTTTTTTTTTTTTTTTTTTTTT MOQGAD      TELAPSE        7.10 TCPU        5.51
 TTTTTTTTTTTTTTTTTTTTTTTTTTTTTT SHELLXN     TELAPSE        7.75 TCPU        6.16
 TTTTTTTTTTTTTTTTTTTTTTTTTTTTTT MONMO3      TELAPSE        7.89 TCPU        6.31
 NUMERICALLY INTEGRATED DENSITY     89.9998002149
 TTTTTTTTTTTTTTTTTTTTTTTTTTTTTT NUMDFT      TELAPSE        8.15 TCPU        6.56
 CYC   3 ETOT(AU) -5.702544309937E+02 DETOT -6.51E-02 tst  5.86E-03 PX  4.66E-02
 TTTTTTTTTTTTTTTTTTTTTTTTTTTTTT DIIS        TELAPSE        8.16 TCPU        6.58
 DIIS TEST: 0.35928E-01 AT SCF   CYCLE   3 - DIIS ACTIVE - HISTORY:     3 CYCLES
 TTTTTTTTTTTTTTTTTTTTTTTTTTTTTT FDIK        TELAPSE        8.33 TCPU        6.74
 POSSIBLY CONDUCTING STATE - EFERMI(AU) -1.8799716E-01 (RES. CHARGE  4.77E-12;IT. 14)
 TTTTTTTTTTTTTTTTTTTTTTTTTTTTTT PDIG        TELAPSE        8.45 TCPU        6.86
 CHARGE NORMALIZATION FACTOR   1.00000000
 TOTAL ATOMIC CHARGES:
   5.9337449   5.9337436   5.9337446   5.9337429   5.9337384   5.9337436
   6.1038402   6.0143660   6.0143077   6.0143026   6.0143516   6.1038092
   6.0143569   6.1038506   6.0143572
 TTTTTTTTTTTTTTTTTTTTTTTTTTTTTT MOQGAD      TELAPSE        8.45 TCPU        6.86
 TTTTTTTTTTTTTTTTTTTTTTTTTTTTTT SHELLXN     TELAPSE        9.10 TCPU        7.51
 TTTTTTTTTTTTTTTTTTTTTTTTTTTTTT MONMO3      TELAPSE        9.25 TCPU        7.66
 NUMERICALLY INTEGRATED DENSITY     89.9998083155
 TTTTTTTTTTTTTTTTTTTTTTTTTTTTTT NUMDFT      TELAPSE        9.50 TCPU        7.91
 CYC   4 ETOT(AU) -5.702583484815E+02 DETOT -3.92E-03 tst  2.93E-04 PX  2.94E-02
 TTTTTTTTTTTTTTTTTTTTTTTTTTTTTT DIIS        TELAPSE        9.51 TCPU        7.92
 DIIS TEST: 0.20319E-01 AT SCF   CYCLE   4 - DIIS ACTIVE - HISTORY:     4 CYCLES
 TTTTTTTTTTTTTTTTTTTTTTTTTTTTTT FDIK        TELAPSE        9.69 TCPU        8.10
 POSSIBLY CONDUCTING STATE - EFERMI(AU) -1.8752063E-01 (RES. CHARGE  7.08E-11;IT. 10)
 TTTTTTTTTTTTTTTTTTTTTTTTTTTTTT PDIG        TELAPSE        9.81 TCPU        8.22
 CHARGE NORMALIZATION FACTOR   1.00000000
 TOTAL ATOMIC CHARGES:
   5.9368464   5.9368476   5.9368512   5.9368439   5.9368432   5.9368453
   5.9792710   6.0734016   6.0736227   6.0736500   6.0734373   5.9794300
   6.0734275   5.9792551   6.0734273
 TTTTTTTTTTTTTTTTTTTTTTTTTTTTTT MOQGAD      TELAPSE        9.81 TCPU        8.22
 TTTTTTTTTTTTTTTTTTTTTTTTTTTTTT SHELLXN     TELAPSE       10.46 TCPU        8.87
 TTTTTTTTTTTTTTTTTTTTTTTTTTTTTT MONMO3      TELAPSE       10.61 TCPU        9.01
 NUMERICALLY INTEGRATED DENSITY     89.9998089323
 TTTTTTTTTTTTTTTTTTTTTTTTTTTTTT NUMDFT      TELAPSE       10.87 TCPU        9.27
 CYC   5 ETOT(AU) -5.702582703730E+02 DETOT  7.81E-05 tst  2.82E-04 PX  2.29E-02
 TTTTTTTTTTTTTTTTTTTTTTTTTTTTTT DIIS        TELAPSE       10.88 TCPU        9.29
 DIIS TEST: 0.21283E-01 AT SCF   CYCLE   5 - DIIS ACTIVE - HISTORY:     5 CYCLES
 TTTTTTTTTTTTTTTTTTTTTTTTTTTTTT FDIK        TELAPSE       11.04 TCPU        9.45
 POSSIBLY CONDUCTING STATE - EFERMI(AU) -1.8558866E-01 (RES. CHARGE  1.39E-10;IT. 10)
 TTTTTTTTTTTTTTTTTTTTTTTTTTTTTT PDIG        TELAPSE       11.18 TCPU        9.58
 CHARGE NORMALIZATION FACTOR   1.00000000
 TOTAL ATOMIC CHARGES:
   5.9477977   5.9477940   5.9477907   5.9477995   5.9477857   5.9477991
   6.0313166   6.0369973   6.0361252   6.0360557   6.0369099   6.0306049
   6.0369457   6.0313510   6.0369269
 TTTTTTTTTTTTTTTTTTTTTTTTTTTTTT MOQGAD      TELAPSE       11.18 TCPU        9.58
 TTTTTTTTTTTTTTTTTTTTTTTTTTTTTT SHELLXN     TELAPSE       11.82 TCPU       10.22
 TTTTTTTTTTTTTTTTTTTTTTTTTTTTTT MONMO3      TELAPSE       11.97 TCPU       10.37
 NUMERICALLY INTEGRATED DENSITY     89.9998076218
 TTTTTTTTTTTTTTTTTTTTTTTTTTTTTT NUMDFT      TELAPSE       12.23 TCPU       10.63
 CYC   6 ETOT(AU) -5.702610365532E+02 DETOT -2.77E-03 tst  7.82E-05 PX  8.41E-03
 TTTTTTTTTTTTTTTTTTTTTTTTTTTTTT DIIS        TELAPSE       12.24 TCPU       10.64
 DIIS TEST: 0.51313E-04 AT SCF   CYCLE   6 - DIIS ACTIVE - HISTORY:     6 CYCLES
 TTTTTTTTTTTTTTTTTTTTTTTTTTTTTT FDIK        TELAPSE       16.87 TCPU       15.27
 POSSIBLY CONDUCTING STATE - EFERMI(AU) -1.8562228E-01 (RES. CHARGE  4.37E-11;IT.  8)
 TTTTTTTTTTTTTTTTTTTTTTTTTTTTTT PDIG        TELAPSE       17.00 TCPU       15.40
 CHARGE NORMALIZATION FACTOR   1.00000000
 TOTAL ATOMIC CHARGES:
   5.9474272   5.9473489   5.9473943   5.9473516   5.9474771   5.9473633
   6.0295945   6.0321480   6.0433764   6.0440103   6.0325967   6.0385857
   6.0326224   6.0302021   6.0325016
 TTTTTTTTTTTTTTTTTTTTTTTTTTTTTT MOQGAD      TELAPSE       17.00 TCPU       15.40
 TTTTTTTTTTTTTTTTTTTTTTTTTTTTTT SHELLXN     TELAPSE       17.65 TCPU       16.05
 TTTTTTTTTTTTTTTTTTTTTTTTTTTTTT MONMO3      TELAPSE       17.80 TCPU       16.20
 NUMERICALLY INTEGRATED DENSITY     89.9998074986
 TTTTTTTTTTTTTTTTTTTTTTTTTTTTTT NUMDFT      TELAPSE       18.06 TCPU       16.45
 CYC   7 ETOT(AU) -5.702609822767E+02 DETOT  5.43E-05 tst  1.10E-06 PX  2.29E-03
 TTTTTTTTTTTTTTTTTTTTTTTTTTTTTT DIIS        TELAPSE       18.07 TCPU       16.47
 DIIS TEST: 0.48621E-03 AT SCF   CYCLE   7 - DIIS ACTIVE - HISTORY:     7 CYCLES
 TTTTTTTTTTTTTTTTTTTTTTTTTTTTTT FDIK        TELAPSE       18.25 TCPU       16.65
 POSSIBLY CONDUCTING STATE - EFERMI(AU) -1.8563966E-01 (RES. CHARGE  1.28E-13;IT.  8)
 TTTTTTTTTTTTTTTTTTTTTTTTTTTTTT PDIG        TELAPSE       18.38 TCPU       16.78
 CHARGE NORMALIZATION FACTOR   1.00000000
 TOTAL ATOMIC CHARGES:
   5.9473139   5.9473868   5.9474057   5.9473597   5.9473279   5.9473633
   6.0339778   6.0357956   6.0354368   6.0356681   6.0362028   6.0335635
   6.0359611   6.0331166   6.0361204
 TTTTTTTTTTTTTTTTTTTTTTTTTTTTTT MOQGAD      TELAPSE       18.38 TCPU       16.78
 TTTTTTTTTTTTTTTTTTTTTTTTTTTTTT SHELLXN     TELAPSE       19.03 TCPU       17.42
 TTTTTTTTTTTTTTTTTTTTTTTTTTTTTT MONMO3      TELAPSE       19.18 TCPU       17.57
 NUMERICALLY INTEGRATED DENSITY     89.9998075257
 TTTTTTTTTTTTTTTTTTTTTTTTTTTTTT NUMDFT      TELAPSE       19.43 TCPU       17.82
 CYC   8 ETOT(AU) -5.702610436865E+02 DETOT -6.14E-05 tst  1.01E-06 PX  1.74E-03
 TTTTTTTTTTTTTTTTTTTTTTTTTTTTTT DIIS        TELAPSE       19.45 TCPU       17.84
 DIIS TEST: 0.39483E-05 AT SCF   CYCLE   8 - DIIS ACTIVE - HISTORY:     8 CYCLES
 TTTTTTTTTTTTTTTTTTTTTTTTTTTTTT FDIK        TELAPSE       19.63 TCPU       18.02
 POSSIBLY CONDUCTING STATE - EFERMI(AU) -1.8567425E-01 (RES. CHARGE  1.12E-10;IT.  8)
 TTTTTTTTTTTTTTTTTTTTTTTTTTTTTT PDIG        TELAPSE       19.76 TCPU       18.15
 CHARGE NORMALIZATION FACTOR   1.00000000
 TOTAL ATOMIC CHARGES:
   5.9474497   5.9473078   5.9472655   5.9473198   5.9473953   5.9473162
   6.0329428   6.0362597   6.0361414   6.0355305   6.0354091   6.0332083
   6.0358347   6.0350151   6.0356039
 TTTTTTTTTTTTTTTTTTTTTTTTTTTTTT MOQGAD      TELAPSE       19.76 TCPU       18.15
 TTTTTTTTTTTTTTTTTTTTTTTTTTTTTT SHELLXN     TELAPSE       20.41 TCPU       18.80
 TTTTTTTTTTTTTTTTTTTTTTTTTTTTTT MONMO3      TELAPSE       20.56 TCPU       18.94
 NUMERICALLY INTEGRATED DENSITY     89.9998075409
 TTTTTTTTTTTTTTTTTTTTTTTTTTTTTT NUMDFT      TELAPSE       20.81 TCPU       19.20
 CYC   9 ETOT(AU) -5.702610427212E+02 DETOT  9.65E-07 tst  3.09E-08 PX  3.23E-04
 TTTTTTTTTTTTTTTTTTTTTTTTTTTTTT DIIS        TELAPSE       20.83 TCPU       19.22
 DIIS TEST: 0.69968E-05 AT SCF   CYCLE   9 - DIIS ACTIVE - HISTORY:     9 CYCLES
 TTTTTTTTTTTTTTTTTTTTTTTTTTTTTT FDIK        TELAPSE       21.01 TCPU       19.40
 POSSIBLY CONDUCTING STATE - EFERMI(AU) -1.8569434E-01 (RES. CHARGE  5.28E-12;IT.  8)
 TTTTTTTTTTTTTTTTTTTTTTTTTTTTTT PDIG        TELAPSE       21.14 TCPU       19.53
 CHARGE NORMALIZATION FACTOR   1.00000000
 TOTAL ATOMIC CHARGES:
   5.9473193   5.9473333   5.9473411   5.9473321   5.9473200   5.9473331
   6.0340716   6.0358405   6.0356678   6.0357599   6.0356879   6.0338750
   6.0358959   6.0335578   6.0356647
 TTTTTTTTTTTTTTTTTTTTTTTTTTTTTT MOQGAD      TELAPSE       21.14 TCPU       19.53
 TTTTTTTTTTTTTTTTTTTTTTTTTTTTTT SHELLXN     TELAPSE       21.79 TCPU       20.17
 TTTTTTTTTTTTTTTTTTTTTTTTTTTTTT MONMO3      TELAPSE       21.94 TCPU       20.32
 NUMERICALLY INTEGRATED DENSITY     89.9998075495
 TTTTTTTTTTTTTTTTTTTTTTTTTTTTTT NUMDFT      TELAPSE       22.19 TCPU       20.57
 CYC  10 ETOT(AU) -5.702610429832E+02 DETOT -2.62E-07 tst  2.10E-08 PX  2.45E-04
 TTTTTTTTTTTTTTTTTTTTTTTTTTTTTT DIIS        TELAPSE       22.21 TCPU       20.59
 DIIS TEST: 0.90273E-06 AT SCF   CYCLE  10 - DIIS ACTIVE - HISTORY:    10 CYCLES
 TTTTTTTTTTTTTTTTTTTTTTTTTTTTTT FDIK        TELAPSE       22.39 TCPU       20.77
 POSSIBLY CONDUCTING STATE - EFERMI(AU) -1.8570304E-01 (RES. CHARGE  1.26E-12;IT.  8)
 TTTTTTTTTTTTTTTTTTTTTTTTTTTTTT PDIG        TELAPSE       22.52 TCPU       20.90
 CHARGE NORMALIZATION FACTOR   1.00000000
 TOTAL ATOMIC CHARGES:
   5.9472860   5.9473281   5.9473374   5.9473105   5.9472891   5.9473125
   6.0328997   6.0353793   6.0359174   6.0360096   6.0366917   6.0334180
   6.0354625   6.0337068   6.0366513
 TTTTTTTTTTTTTTTTTTTTTTTTTTTTTT MOQGAD      TELAPSE       22.52 TCPU       20.90
 TTTTTTTTTTTTTTTTTTTTTTTTTTTTTT SHELLXN     TELAPSE       23.17 TCPU       21.55
 TTTTTTTTTTTTTTTTTTTTTTTTTTTTTT MONMO3      TELAPSE       23.32 TCPU       21.70
 NUMERICALLY INTEGRATED DENSITY     89.9998075550
 TTTTTTTTTTTTTTTTTTTTTTTTTTTTTT NUMDFT      TELAPSE       23.68 TCPU       22.06
 CYC  11 ETOT(AU) -5.702610417172E+02 DETOT  1.27E-06 tst  2.32E-08 PX  3.28E-04
 TTTTTTTTTTTTTTTTTTTTTTTTTTTTTT DIIS        TELAPSE       23.70 TCPU       22.08
 DIIS TEST: 0.68161E-05 AT SCF   CYCLE  11 - DIIS ACTIVE - HISTORY:    11 CYCLES
 TTTTTTTTTTTTTTTTTTTTTTTTTTTTTT FDIK        TELAPSE       23.87 TCPU       22.24
 POSSIBLY CONDUCTING STATE - EFERMI(AU) -1.8571244E-01 (RES. CHARGE  8.95E-13;IT.  8)
 TTTTTTTTTTTTTTTTTTTTTTTTTTTTTT PDIG        TELAPSE       23.99 TCPU       22.37
 CHARGE NORMALIZATION FACTOR   1.00000000
 TOTAL ATOMIC CHARGES:
   5.9472855   5.9472937   5.9472881   5.9472774   5.9472732   5.9472791
   6.0336205   6.0359163   6.0359876   6.0358759   6.0359290   6.0335897
   6.0358663   6.0335727   6.0359451
 TTTTTTTTTTTTTTTTTTTTTTTTTTTTTT MOQGAD      TELAPSE       24.00 TCPU       22.37
 TTTTTTTTTTTTTTTTTTTTTTTTTTTTTT SHELLXN     TELAPSE       24.64 TCPU       23.02
 TTTTTTTTTTTTTTTTTTTTTTTTTTTTTT MONMO3      TELAPSE       24.79 TCPU       23.17
 NUMERICALLY INTEGRATED DENSITY     89.9998075565
 TTTTTTTTTTTTTTTTTTTTTTTTTTTTTT NUMDFT      TELAPSE       25.05 TCPU       23.42
 CYC  12 ETOT(AU) -5.702610421226E+02 DETOT -4.05E-07 tst  1.71E-08 PX  1.57E-04
 TTTTTTTTTTTTTTTTTTTTTTTTTTTTTT DIIS        TELAPSE       25.07 TCPU       23.44
 DIIS TEST: 0.13361E-05 AT SCF   CYCLE  12 - DIIS ACTIVE - HISTORY:    12 CYCLES
 TTTTTTTTTTTTTTTTTTTTTTTTTTTTTT FDIK        TELAPSE       25.25 TCPU       23.62
 POSSIBLY CONDUCTING STATE - EFERMI(AU) -1.8571341E-01 (RES. CHARGE  1.29E-11;IT.  6)
 TTTTTTTTTTTTTTTTTTTTTTTTTTTTTT PDIG        TELAPSE       25.38 TCPU       23.75
 CHARGE NORMALIZATION FACTOR   1.00000000
 TOTAL ATOMIC CHARGES:
   5.9472783   5.9472771   5.9472888   5.9472817   5.9472837   5.9472837
   6.0336362   6.0358349   6.0357989   6.0359334   6.0358989   6.0337158
   6.0359209   6.0337074   6.0358602
 TTTTTTTTTTTTTTTTTTTTTTTTTTTTTT MOQGAD      TELAPSE       25.38 TCPU       23.75
 TTTTTTTTTTTTTTTTTTTTTTTTTTTTTT SHELLXN     TELAPSE       26.03 TCPU       24.40
 TTTTTTTTTTTTTTTTTTTTTTTTTTTTTT MONMO3      TELAPSE       26.18 TCPU       24.55
 NUMERICALLY INTEGRATED DENSITY     89.9998075563
 TTTTTTTTTTTTTTTTTTTTTTTTTTTTTT NUMDFT      TELAPSE       26.43 TCPU       24.80
 CYC  13 ETOT(AU) -5.702610421644E+02 DETOT -4.18E-08 tst  2.48E-10 PX  2.54E-05
 TTTTTTTTTTTTTTTTTTTTTTTTTTTTTT DIIS        TELAPSE       26.46 TCPU       24.83
 DIIS TEST: 0.91095E-06 AT SCF   CYCLE  13 - DIIS ACTIVE - HISTORY:    13 CYCLES
 TTTTTTTTTTTTTTTTTTTTTTTTTTTTTT FDIK        TELAPSE       26.64 TCPU       25.01
 POSSIBLY CONDUCTING STATE - EFERMI(AU) -1.8571788E-01 (RES. CHARGE  4.42E-10;IT.  6)
 TTTTTTTTTTTTTTTTTTTTTTTTTTTTTT PDIG        TELAPSE       26.77 TCPU       25.13
 CHARGE NORMALIZATION FACTOR   1.00000000
 TOTAL ATOMIC CHARGES:
   5.9472830   5.9472784   5.9472771   5.9472840   5.9472725   5.9472828
   6.0341239   6.0356767   6.0356477   6.0356516   6.0356541   6.0341069
   6.0356154   6.0341398   6.0357060
 TTTTTTTTTTTTTTTTTTTTTTTTTTTTTT MOQGAD      TELAPSE       26.77 TCPU       25.14
 TTTTTTTTTTTTTTTTTTTTTTTTTTTTTT SHELLXN     TELAPSE       27.39 TCPU       25.76
 TTTTTTTTTTTTTTTTTTTTTTTTTTTTTT MONMO3      TELAPSE       28.18 TCPU       26.55
 NUMERICALLY INTEGRATED DENSITY     89.9998075552
 TTTTTTTTTTTTTTTTTTTTTTTTTTTTTT NUMDFT      TELAPSE       28.44 TCPU       26.80
 CYC  14 ETOT(AU) -5.702610422478E+02 DETOT -8.34E-08 tst  2.55E-09 PX  7.69E-05
 TTTTTTTTTTTTTTTTTTTTTTTTTTTTTT DIIS        TELAPSE       28.46 TCPU       26.82
 DIIS TEST: 0.13700E-07 AT SCF   CYCLE  14 - DIIS ACTIVE - HISTORY:    14 CYCLES
 TTTTTTTTTTTTTTTTTTTTTTTTTTTTTT FDIK        TELAPSE       28.63 TCPU       26.99
 POSSIBLY CONDUCTING STATE - EFERMI(AU) -1.8571862E-01 (RES. CHARGE  9.95E-14;IT.  6)
 TTTTTTTTTTTTTTTTTTTTTTTTTTTTTT PDIG        TELAPSE       28.76 TCPU       27.12
 CHARGE NORMALIZATION FACTOR   1.00000000
 TOTAL ATOMIC CHARGES:
   5.9472787   5.9472795   5.9472822   5.9472746   5.9472745   5.9472760
   6.0341717   6.0355952   6.0356661   6.0356055   6.0356758   6.0341649
   6.0356753   6.0341811   6.0355987
 TTTTTTTTTTTTTTTTTTTTTTTTTTTTTT MOQGAD      TELAPSE       28.76 TCPU       27.13
 TTTTTTTTTTTTTTTTTTTTTTTTTTTTTT SHELLXN     TELAPSE       29.41 TCPU       27.77
 TTTTTTTTTTTTTTTTTTTTTTTTTTTTTT MONMO3      TELAPSE       29.56 TCPU       27.92
 NUMERICALLY INTEGRATED DENSITY     89.9998075551
 TTTTTTTTTTTTTTTTTTTTTTTTTTTTTT NUMDFT      TELAPSE       29.92 TCPU       28.28
 CYC  15 ETOT(AU) -5.702610422529E+02 DETOT -5.07E-09 tst  1.40E-10 PX  1.72E-05
 TTTTTTTTTTTTTTTTTTTTTTTTTTTTTT DIIS        TELAPSE       29.94 TCPU       28.30
 DIIS TEST: 0.33755E-07 AT SCF   CYCLE  15 - DIIS ACTIVE - HISTORY:    15 CYCLES
 TTTTTTTTTTTTTTTTTTTTTTTTTTTTTT FDIK        TELAPSE       30.12 TCPU       28.47
 POSSIBLY CONDUCTING STATE - EFERMI(AU) -1.8571852E-01 (RES. CHARGE  7.05E-10;IT.  4)
 TTTTTTTTTTTTTTTTTTTTTTTTTTTTTT PDIG        TELAPSE       30.24 TCPU       28.60
 CHARGE NORMALIZATION FACTOR   1.00000000
 TOTAL ATOMIC CHARGES:
   5.9472783   5.9472795   5.9472809   5.9472749   5.9472730   5.9472766
   6.0341254   6.0356610   6.0356536   6.0356526   6.0356509   6.0341486
   6.0356563   6.0341321   6.0356564
 TTTTTTTTTTTTTTTTTTTTTTTTTTTTTT MOQGAD      TELAPSE       30.24 TCPU       28.60
 TTTTTTTTTTTTTTTTTTTTTTTTTTTTTT SHELLXN     TELAPSE       30.89 TCPU       29.25
 TTTTTTTTTTTTTTTTTTTTTTTTTTTTTT MONMO3      TELAPSE       31.04 TCPU       29.40
 NUMERICALLY INTEGRATED DENSITY     89.9998075553
 TTTTTTTTTTTTTTTTTTTTTTTTTTTTTT NUMDFT      TELAPSE       31.40 TCPU       29.76
 CYC  16 ETOT(AU) -5.702610422497E+02 DETOT  3.19E-09 tst  5.52E-11 PX  8.93E-06
 TTTTTTTTTTTTTTTTTTTTTTTTTTTTTT DIIS        TELAPSE       31.43 TCPU       29.78
 DIIS TEST: 0.51316E-08 AT SCF   CYCLE  16 - DIIS ACTIVE - HISTORY:    16 CYCLES
 TTTTTTTTTTTTTTTTTTTTTTTTTTTTTT FDIK        TELAPSE       31.61 TCPU       29.97
 POSSIBLY CONDUCTING STATE - EFERMI(AU) -1.8571868E-01 (RES. CHARGE  4.26E-14;IT.  6)
 TTTTTTTTTTTTTTTTTTTTTTTTTTTTTT PDIG        TELAPSE       31.74 TCPU       30.09
 CHARGE NORMALIZATION FACTOR   1.00000000
 TOTAL ATOMIC CHARGES:
   5.9472786   5.9472785   5.9472811   5.9472748   5.9472739   5.9472757
   6.0341343   6.0356550   6.0356586   6.0356756   6.0356585   6.0341086
   6.0356577   6.0341312   6.0356577
 TTTTTTTTTTTTTTTTTTTTTTTTTTTTTT MOQGAD      TELAPSE       31.74 TCPU       30.09
 TTTTTTTTTTTTTTTTTTTTTTTTTTTTTT SHELLXN     TELAPSE       32.39 TCPU       30.74
 TTTTTTTTTTTTTTTTTTTTTTTTTTTTTT MONMO3      TELAPSE       32.54 TCPU       30.89
 NUMERICALLY INTEGRATED DENSITY     89.9998075554
 TTTTTTTTTTTTTTTTTTTTTTTTTTTTTT NUMDFT      TELAPSE       32.91 TCPU       31.26
 CYC  17 ETOT(AU) -5.702610422408E+02 DETOT  8.94E-09 tst  8.44E-12 PX  6.07E-06
 TTTTTTTTTTTTTTTTTTTTTTTTTTTTTT DIIS        TELAPSE       32.93 TCPU       31.28
 DIIS TEST: 0.33093E-08 AT SCF   CYCLE  17 - DIIS ACTIVE - HISTORY:    17 CYCLES
 TTTTTTTTTTTTTTTTTTTTTTTTTTTTTT FDIK        TELAPSE       33.40 TCPU       31.44
 POSSIBLY CONDUCTING STATE - EFERMI(AU) -1.8571890E-01 (RES. CHARGE  9.24E-14;IT.  6)
 TTTTTTTTTTTTTTTTTTTTTTTTTTTTTT PDIG        TELAPSE       33.53 TCPU       31.57
 CHARGE NORMALIZATION FACTOR   1.00000000
 TOTAL ATOMIC CHARGES:
   5.9472788   5.9472765   5.9472783   5.9472778   5.9472727   5.9472781
   6.0341081   6.0356669   6.0356683   6.0356705   6.0356676   6.0341080
   6.0356692   6.0341118   6.0356673
 TTTTTTTTTTTTTTTTTTTTTTTTTTTTTT MOQGAD      TELAPSE       33.53 TCPU       31.57
 TTTTTTTTTTTTTTTTTTTTTTTTTTTTTT SHELLXN     TELAPSE       34.18 TCPU       32.22
 TTTTTTTTTTTTTTTTTTTTTTTTTTTTTT MONMO3      TELAPSE       34.32 TCPU       32.37
 NUMERICALLY INTEGRATED DENSITY     89.9998075556
 TTTTTTTTTTTTTTTTTTTTTTTTTTTTTT NUMDFT      TELAPSE       34.58 TCPU       32.63
 CYC  18 ETOT(AU) -5.702610422332E+02 DETOT  7.55E-09 tst  3.60E-12 PX  4.15E-06
 TTTTTTTTTTTTTTTTTTTTTTTTTTTTTT DIIS        TELAPSE       34.60 TCPU       32.65
 DIIS TEST: 0.12551E-09 AT SCF   CYCLE  18 - DIIS ACTIVE - HISTORY:    18 CYCLES
 TTTTTTTTTTTTTTTTTTTTTTTTTTTTTT FDIK        TELAPSE       34.78 TCPU       32.83
 POSSIBLY CONDUCTING STATE - EFERMI(AU) -1.8571895E-01 (RES. CHARGE  6.12E-10;IT.  4)
 TTTTTTTTTTTTTTTTTTTTTTTTTTTTTT PDIG        TELAPSE       34.91 TCPU       32.95
 CHARGE NORMALIZATION FACTOR   1.00000000
 TOTAL ATOMIC CHARGES:
   5.9472784   5.9472778   5.9472796   5.9472762   5.9472729   5.9472771
   6.0341046   6.0356694   6.0356685   6.0356707   6.0356692   6.0341067
   6.0356712   6.0341080   6.0356695
 TTTTTTTTTTTTTTTTTTTTTTTTTTTTTT MOQGAD      TELAPSE       34.91 TCPU       32.95
 TTTTTTTTTTTTTTTTTTTTTTTTTTTTTT SHELLXN     TELAPSE       35.56 TCPU       33.60
 TTTTTTTTTTTTTTTTTTTTTTTTTTTTTT MONMO3      TELAPSE       35.71 TCPU       33.75
 NUMERICALLY INTEGRATED DENSITY     89.9998075557
 TTTTTTTTTTTTTTTTTTTTTTTTTTTTTT NUMDFT      TELAPSE       35.96 TCPU       34.01
 CYC  19 ETOT(AU) -5.702610422358E+02 DETOT -2.54E-09 tst  1.23E-13 PX  5.46E-07
 TTTTTTTTTTTTTTTTTTTTTTTTTTTTTT DIIS        TELAPSE       35.99 TCPU       34.03
 DIIS TEST: 0.17291E-10 AT SCF   CYCLE  19 - DIIS ACTIVE - HISTORY:    19 CYCLES
 TTTTTTTTTTTTTTTTTTTTTTTTTTTTTT FDIK        TELAPSE       36.17 TCPU       34.21
 POSSIBLY CONDUCTING STATE - EFERMI(AU) -1.8571893E-01 (RES. CHARGE  4.30E-11;IT.  4)
 TTTTTTTTTTTTTTTTTTTTTTTTTTTTTT PDIG        TELAPSE       36.30 TCPU       34.34
 CHARGE NORMALIZATION FACTOR   1.00000000
 TOTAL ATOMIC CHARGES:
   5.9472785   5.9472778   5.9472796   5.9472764   5.9472729   5.9472772
   6.0341032   6.0356709   6.0356690   6.0356715   6.0356706   6.0341052
   6.0356717   6.0341062   6.0356696
 TTTTTTTTTTTTTTTTTTTTTTTTTTTTTT MOQGAD      TELAPSE       36.30 TCPU       34.34
 TTTTTTTTTTTTTTTTTTTTTTTTTTTTTT SHELLXN     TELAPSE       36.95 TCPU       34.99
 TTTTTTTTTTTTTTTTTTTTTTTTTTTTTT MONMO3      TELAPSE       37.10 TCPU       35.13
 NUMERICALLY INTEGRATED DENSITY     89.9998075557
 TTTTTTTTTTTTTTTTTTTTTTTTTTTTTT NUMDFT      TELAPSE       37.46 TCPU       35.50
 CYC  20 ETOT(AU) -5.702610422318E+02 DETOT  3.94E-09 tst  3.34E-14 PX  3.27E-07
 TTTTTTTTTTTTTTTTTTTTTTTTTTTTTT DIIS        TELAPSE       37.57 TCPU       35.60
 DIIS TEST: 0.27413E-11 AT SCF   CYCLE  20 - DIIS ACTIVE - HISTORY:    19 CYCLES
 TTTTTTTTTTTTTTTTTTTTTTTTTTTTTT FDIK        TELAPSE       37.76 TCPU       35.79
 POSSIBLY CONDUCTING STATE - EFERMI(AU) -1.8571893E-01 (RES. CHARGE  1.78E-12;IT.  4)
 TTTTTTTTTTTTTTTTTTTTTTTTTTTTTT PDIG        TELAPSE       37.88 TCPU       35.92
 CHARGE NORMALIZATION FACTOR   1.00000000
 TOTAL ATOMIC CHARGES:
   5.9472785   5.9472778   5.9472796   5.9472763   5.9472729   5.9472772
   6.0341030   6.0356705   6.0356692   6.0356714   6.0356700   6.0341049
   6.0356723   6.0341059   6.0356703
 TTTTTTTTTTTTTTTTTTTTTTTTTTTTTT MOQGAD      TELAPSE       37.88 TCPU       35.92
 TTTTTTTTTTTTTTTTTTTTTTTTTTTTTT SHELLXN     TELAPSE       38.53 TCPU       36.56
 TTTTTTTTTTTTTTTTTTTTTTTTTTTTTT MONMO3      TELAPSE       38.68 TCPU       36.71
 NUMERICALLY INTEGRATED DENSITY     89.9998075557
 TTTTTTTTTTTTTTTTTTTTTTTTTTTTTT NUMDFT      TELAPSE       38.94 TCPU       36.97
 CYC  21 ETOT(AU) -5.702610422316E+02 DETOT  2.64E-10 tst  5.76E-15 PX  1.07E-07
 TTTTTTTTTTTTTTTTTTTTTTTTTTTTTT DIIS        TELAPSE       38.98 TCPU       37.01
 DIIS TEST: 0.69703E-12 AT SCF   CYCLE  21 - DIIS ACTIVE - HISTORY:    20 CYCLES
 TTTTTTTTTTTTTTTTTTTTTTTTTTTTTT FDIK        TELAPSE       39.16 TCPU       37.19
 POSSIBLY CONDUCTING STATE - EFERMI(AU) -1.8571892E-01 (RES. CHARGE  4.79E-12;IT.  4)
 TTTTTTTTTTTTTTTTTTTTTTTTTTTTTT PDIG        TELAPSE       39.29 TCPU       37.32
 CHARGE NORMALIZATION FACTOR   1.00000000
 TOTAL ATOMIC CHARGES:
   5.9472785   5.9472778   5.9472796   5.9472763   5.9472729   5.9472772
   6.0341029   6.0356707   6.0356690   6.0356713   6.0356703   6.0341048
   6.0356723   6.0341059   6.0356704
 TTTTTTTTTTTTTTTTTTTTTTTTTTTTTT MOQGAD      TELAPSE       39.29 TCPU       37.32
 TTTTTTTTTTTTTTTTTTTTTTTTTTTTTT SHELLXN     TELAPSE       39.94 TCPU       37.96
 +++ ENERGIES IN A.U. +++
 ::: EXT EL-POLE                                  -7.9833383094007E+02
 ::: EXT EL-SPHEROPOLE                             6.3642503650811E+00
 ::: BIELET ZONE E-E                               1.1853506268216E+03
 ::: TOTAL E-E                                     3.9338104624661E+02
 ::: TOTAL E-N + N-E                              -1.5661585930413E+03
 ::: TOTAL N-N                                     1.1590321491040E+02
 ::: KINETIC ENERGY                                5.6666039125508E+02
 ::: PSEUDO TOTAL   ENERGY                        -4.9021394062917E+02
 ::: VIRIAL COEFFICIENT                            1.0723325832785E+00
 TTTTTTTTTTTTTTTTTTTTTTTTTTTTTT MONMO3      TELAPSE       40.08 TCPU       38.11
 NUMERICALLY INTEGRATED DENSITY     89.9998075557
 TTTTTTTTTTTTTTTTTTTTTTTTTTTTTT NUMDFT      TELAPSE       40.43 TCPU       38.46
 CYC  22 ETOT(AU) -5.702610422317E+02 DETOT -1.48E-10 tst  1.61E-15 PX  1.07E-07

 == SCF ENDED - CONVERGENCE ON ENERGY      E(AU) -5.7026104223171E+02 CYCLES  22


 ENERGY EXPRESSION=HARTREE+FOCK EXCH*0.00000+(PBE        EXCH)*1.00000+PBE        CORR


 TOTAL ENERGY(DFT)(AU)( 22) -5.7026104223171E+02 DE-1.5E-10 tester 1.6E-15
 TTTTTTTTTTTTTTTTTTTTTTTTTTTTTT EDFT        TELAPSE       40.43 TCPU       38.46

 *******************************************************************************
 *                             FORCE CALCULATION                               *
 *******************************************************************************

 TTTTTTTTTTTTTTTTTTTTTTTTTTTTTT NUMDFG      TELAPSE       41.07 TCPU       39.10
 INFORMATION **** EXCPOG **** EXCH. BIPO BUFFER LENGTH (WORDS) =           0
 INFORMATION **** GENPOG **** BIPO BUFFER LENGTH (WORDS) =     1107000
 TTTTTTTTTTTTTTTTTTTTTTTTTTTTTT SHELXG      TELAPSE       43.26 TCPU       41.29

 CARTESIAN FORCES IN HARTREE/BOHR (ANALYTICAL)
   ATOM                     X                   Y                   Z
   1   6            -3.553712860676E-04  3.227943490626E-04 -1.691597693630E-08
   2   6             3.553352798753E-04  3.228274058804E-04 -1.109014843865E-08
   3   6            -3.553044075574E-04  3.228690169558E-04  1.263950750551E-09
   4   6             3.553406852920E-04  3.227815161640E-04 -1.810752732839E-08
   5   6             3.553600177132E-04  3.227768726775E-04  8.797593778698E-09
   6   6            -3.553519065677E-04  3.228562687571E-04  1.338412254512E-08
   7   6             4.756609500722E-08 -7.884300001440E-03 -4.002736696691E-09
   8   6             6.684113967012E-03  3.619284997442E-03  2.493188527668E-08
   9   6            -6.684216575452E-03  3.619374313758E-03  4.516019686023E-09
  10   6             6.684211606144E-03  3.619326883194E-03  6.581590886712E-09
  11   6            -6.684195825645E-03  3.619337959379E-03 -1.029118165017E-08
  12   6             1.656502968128E-08 -7.884327131412E-03  5.095858156994E-10
  13   6            -6.684185973918E-03  3.619410969151E-03 -1.402439311653E-08
  14   6             1.937808347119E-08 -7.884355387304E-03  1.110126327978E-08
  15   6             6.684180910187E-03  3.619341967525E-03  3.345839978942E-09

 RESULTANT FORCE     2.244862282175E-13 -2.093950013382E-13 -1.121685210038E-13

 SYMMETRY ALLOWED FORCES (ANALYTICAL) (DIRECTION, FORCE)

    1 -4.7328189E-04    2 -1.5150050E-04    3 -1.7509692E-08    4 -1.3964849E-04
    5  4.7600361E-04    6 -1.2762678E-08    7 -5.2070373E-04    8 -1.2639764E-04
    9 -9.2671394E-10   10 -1.9486319E-04   11  5.0534825E-04   12 -2.1240293E-08
   13 -2.1344758E-04   14  5.5359640E-04   15  4.9507536E-09   16 -6.1062573E-04
   17 -3.6722563E-05   18  1.0307890E-08   19  7.0445331E-03   20 -4.0671037E-03
   21 -6.9169779E-09   22  9.1028332E-04   23  7.7255057E-03   24  2.3089296E-08
   25 -6.1687026E-03   26 -3.5842343E-03   27  4.6095677E-09   28  2.3327370E-05
   29  8.4414553E-03   30  7.7168339E-09   31 -7.4446076E-03   32 -2.6052695E-03
   33 -9.4131804E-09   34  5.7518498E-03   35 -3.3208203E-03   36  3.1928835E-10
   37 -8.1604342E-03   38 -4.7414443E-03   39 -1.7348874E-08   40  4.6813392E-03
   41 -8.1603675E-03   42  5.4839124E-09
 TTTTTTTTTTTTTTTTTTTTTTTTTTTTTT TOTGRA      TELAPSE       43.86 TCPU       41.88
 INFORMATION **** opta001 **** GEOMETRY OUTPUT FILE
 CLASSICAL MODEL (SCHLEGEL) USED AS INITIAL HESSIAN MATRIX
 REFERENCE GEOMETRY DEFINED

 MAX GRADIENT      0.008441  THRESHOLD              0.000450 CONVERGED NO
 RMS GRADIENT      0.003568  THRESHOLD              0.000300 CONVERGED NO

 GRADIENT NORM     0.023120  GRADIENT THRESHOLD     0.500000

 EIGENVALUES OF THE ESTIMATED HESSIAN
  0.1062E-02  0.1330E-02  0.2042E-02  0.2042E-02  0.5077E-02  0.5077E-02
  0.1961E-01  0.2346E-01  0.2346E-01  0.2942E-01  0.3616E-01  0.4653E-01
  0.4653E-01  0.8067E-01  0.8067E-01  0.8072E-01  0.8072E-01  0.9310E-01
  0.9310E-01  0.1708      0.1708      0.1764      0.2717      0.3537    
  0.3537      0.4549      0.4549      0.4552      0.4552      0.5048    
  0.7963      0.7963       1.020       1.020       1.056       1.056    
   1.057       1.057       1.124       1.124       1.258       1.258    

 INITIAL TRUST RADIUS    0.5000000000E+00

 PREDICTED ENERGY CHANGE    -0.981E-03

 INITIAL DISPLACEMENTS
 -0.000562 -0.000421  0.000003  0.000042  0.000673 -0.000000 -0.000605 -0.000403
 -0.000002 -0.000004  0.000693 -0.000002 -0.000004  0.000762  0.000002 -0.000666
 -0.000302 -0.000000  0.025814 -0.014903 -0.000003  0.003447  0.028500  0.000002
 -0.022702 -0.013299  0.000003  0.000199  0.031131  0.000002 -0.027373 -0.009708
 -0.000005  0.021076 -0.012170 -0.000002 -0.030031 -0.017596 -0.000002  0.017084
 -0.030030  0.000002
 TTTTTTTTTTTTTTTTTTTTTTTTTTTTTT OPTI        TELAPSE       43.87 TCPU       41.89

 OPTOPTOPTOPTOPTOPTOPTOPTOPTOPTOPTOPTOPTOPTOPTOPTOPTOPTOPTOPTOPTOPTOPTOPTOPTOPT

 - INFORMATION ON SCF MOVED TO SCFOUT.LOG
 GEOMETRY OPTIMIZATION INFORMATION STORED IN OPTINFO.DAT

 OPTOPTOPTOPTOPTOPTOPTOPTOPTOPTOPTOPTOPTOPTOPTOPTOPTOPTOPTOPTOPTOPTOPTOPTOPTOPT
 *******************************************************************************
 COORDINATE OPTIMIZATION - POINT    2
 *******************************************************************************
 LATTICE PARAMETERS (ANGSTROMS AND DEGREES) - BOHR = 0.5291772083 ANGSTROM
 PRIMITIVE CELL - CENTRING CODE 1/0 VOLUME=   412.228566 - DENSITY  0.725 g/cm^3
         A              B              C           ALPHA      BETA       GAMMA 
     7.40317242     7.40317242     8.68503800    90.000000  90.000000 120.000000
 *******************************************************************************
 ATOMS IN THE ASYMMETRIC UNIT   15 - ATOMS IN THE UNIT CELL:   15
     ATOM                 X/A                 Y/B                 Z/C    
 *******************************************************************************
      1 T   6 C     1.110554995950E-01 -4.444780104771E-01  3.000001623268E-01
      2 T   6 C     1.111447027177E-01 -1.110552031727E-01  2.999999777876E-01
      3 T   6 C     4.443885965330E-01  2.221885713969E-01  2.999998607653E-01
      4 T   6 C     4.444780536487E-01 -4.443887071983E-01  2.999998585974E-01
      5 T   6 C    -2.221884633472E-01  2.222781384568E-01  3.000001182621E-01
      6 T   6 C    -2.222781928753E-01 -1.111448303793E-01  3.000000018330E-01
      7 T   6 C     2.233893854097E-01  1.099439971500E-01  2.999998150967E-01
      8 T   6 C     2.234153036104E-01  4.467823867399E-01  3.000001675579E-01
      9 T   6 C     2.198840156715E-01 -2.234152830295E-01  3.000001477205E-01
     10 T   6 C    -4.432512119377E-01  1.134493374321E-01  3.000000975687E-01
     11 T   6 C    -4.467825835104E-01  4.432512650941E-01  2.999996702942E-01
     12 T   6 C    -4.432773894395E-01 -2.233894995050E-01  2.999999298913E-01
     13 T   6 C    -1.134493075599E-01  1.099179031016E-01  2.999999802245E-01
     14 T   6 C    -1.099437150312E-01  4.432773409773E-01  3.000001788131E-01
     15 T   6 C    -1.099180268176E-01 -2.198840732529E-01  3.000000332608E-01

 T = ATOM BELONGING TO THE ASYMMETRIC UNIT

 TOTAL ENERGY(DFT)(AU)( 21) -5.7026224266929E+02     DE (AU)   -1.200E-03

 UPDATED TRUST RADIUS     0.100E+01

 SYMMETRY ALLOWED FORCES  (COORDINATE, FORCE)

    1 -1.0830038E-04    2 -2.8337555E-05    3 -1.2646037E-07    4 -3.7500681E-05
    5  1.0569904E-04    6 -7.5654241E-08    7 -1.1908234E-04    8 -2.1910815E-05
    9 -3.9977309E-08   10 -5.0564323E-05   11  1.1278802E-04   12  8.8139776E-08
   13 -5.5630689E-05   14  1.2352235E-04   15 -2.3038662E-08   16 -1.4121869E-04
   17 -1.3979407E-06   18  1.5732845E-07   19  1.5243658E-03   20 -8.8010527E-04
   21 -1.0786539E-07   22  2.1760226E-04   23  1.7074939E-03   24  8.7932441E-08
   25 -1.3523198E-03   26 -8.0642548E-04   27  2.3432204E-07   28  2.5879111E-05
   29  1.8631859E-03   30  3.9580031E-08   31 -1.6283218E-03   32 -5.9329910E-04
   33 -1.7442985E-07   34  1.2446767E-03   35 -7.1854379E-04   36 -1.9726672E-07
   37 -1.7895451E-03   38 -1.0667430E-03   39 -9.1221030E-08   40  9.9943607E-04
   41 -1.7892501E-03   42  1.3886492E-07

 GRADIENT NORM     0.005071  GRADIENT THRESHOLD     0.500000

 EIGENVALUES OF THE ESTIMATED HESSIAN
  0.1062E-02  0.1330E-02  0.2042E-02  0.2042E-02  0.5077E-02  0.5077E-02
  0.1961E-01  0.2346E-01  0.2346E-01  0.2942E-01  0.3616E-01  0.4653E-01
  0.4653E-01  0.8067E-01  0.8067E-01  0.8072E-01  0.8072E-01  0.9310E-01
  0.9310E-01  0.1708      0.1708      0.1764      0.2122      0.3536    
  0.3537      0.4549      0.4549      0.4552      0.4552      0.5048    
  0.7962      0.7963       1.020       1.020       1.056       1.056    
   1.057       1.057       1.124       1.124       1.258       1.258    

 PREDICTED ENERGY CHANGE    -0.605E-04

 MAX GRADIENT      0.001863  THRESHOLD              0.000450 CONVERGED NO
 RMS GRADIENT      0.000782  THRESHOLD              0.000300 CONVERGED NO
 MAX DISPLAC.      0.008780  THRESHOLD              0.001800 CONVERGED NO
 RMS DISPLAC.      0.003683  THRESHOLD              0.001200 CONVERGED NO
 TTTTTTTTTTTTTTTTTTTTTTTTTTTTTT OPTI        TELAPSE       79.71 TCPU       77.50
 *******************************************************************************
 COORDINATE OPTIMIZATION - POINT    3
 *******************************************************************************
 LATTICE PARAMETERS (ANGSTROMS AND DEGREES) - BOHR = 0.5291772083 ANGSTROM
 PRIMITIVE CELL - CENTRING CODE 1/0 VOLUME=   412.228566 - DENSITY  0.725 g/cm^3
         A              B              C           ALPHA      BETA       GAMMA 
     7.40317242     7.40317242     8.68503800    90.000000  90.000000 120.000000
 *******************************************************************************
 ATOMS IN THE ASYMMETRIC UNIT   15 - ATOMS IN THE UNIT CELL:   15
     ATOM                 X/A                 Y/B                 Z/C    
 *******************************************************************************
      1 T   6 C     1.110383240490E-01 -4.444888838555E-01  3.000052174614E-01
      2 T   6 C     1.111555829832E-01 -1.110380306697E-01  3.000001444952E-01
      3 T   6 C     4.443714451824E-01  2.221779266469E-01  2.999946411103E-01
      4 T   6 C     4.444888684075E-01 -4.443714714485E-01  2.999987547729E-01
      5 T   6 C    -2.221777516055E-01  2.222953053471E-01  3.000014729152E-01
      6 T   6 C    -2.222954524347E-01 -1.111557104202E-01  2.999998128391E-01
      7 T   6 C     2.237146600908E-01  1.096187873073E-01  2.999946690975E-01
      8 T   6 C     2.237558070255E-01  4.474416701847E-01  3.000049285122E-01
      9 T   6 C     2.192247711339E-01 -2.237558155002E-01  3.000051734862E-01
     10 T   6 C    -4.429108062580E-01  1.141087767798E-01  2.999974945219E-01
     11 T   6 C    -4.474418658219E-01  4.429109455521E-01  2.999929392829E-01
     12 T   6 C    -4.429521768577E-01 -2.237147482570E-01  2.999977428150E-01
     13 T   6 C    -1.141087904382E-01  1.095773302659E-01  3.000012128559E-01
     14 T   6 C    -1.096184328886E-01  4.429520586260E-01  3.000052870768E-01
     15 T   6 C    -1.095775159005E-01 -2.192248072246E-01  3.000005087574E-01

 T = ATOM BELONGING TO THE ASYMMETRIC UNIT

 TOTAL ENERGY(DFT)(AU)( 15) -5.7026229473344E+02     DE (AU)   -5.206E-05

 UPDATED TRUST RADIUS     0.200E+01

 SYMMETRY ALLOWED FORCES  (COORDINATE, FORCE)

    1  5.5410922E-06    2 -5.1343170E-05    3 -4.3044171E-06    4  4.7567910E-05
    5  1.6748879E-05    6 -1.5566911E-06    7  1.0324310E-05    8 -5.3581222E-05
    9 -7.9956470E-07   10  5.2398521E-05   11  1.3491160E-05   12  3.7827032E-07
   13  5.7243770E-05   14  1.4921923E-05   15 -6.5281401E-07   16  2.1718369E-05
   17 -5.5972325E-05   18  4.7897651E-06   19 -4.3952295E-05   20  2.5350365E-05
   21 -4.3014306E-06   22 -4.3650876E-05   23 -1.1405039E-04   24  4.6982303E-06
   25  7.1619123E-05   26  7.9679065E-05   27  6.2761789E-06   28 -3.9468832E-05
   29 -1.1992981E-04   30 -6.1439107E-07   31  7.8359864E-05   32  7.1574733E-05
   33 -4.3291588E-06   34 -3.6250138E-05   35  2.0692335E-05   36 -5.1692753E-06
   37  9.4344768E-05   38  1.0543454E-04   39 -2.9198715E-06   40 -3.6269462E-06
   41  9.4638672E-05   42  3.9360087E-06

 GRADIENT NORM     0.000325  GRADIENT THRESHOLD     0.500000

 EIGENVALUES OF THE ESTIMATED HESSIAN
  0.1062E-02  0.1330E-02  0.2042E-02  0.2042E-02  0.5077E-02  0.5077E-02
  0.1961E-01  0.2346E-01  0.2346E-01  0.2942E-01  0.3616E-01  0.4653E-01
  0.4653E-01  0.8067E-01  0.8067E-01  0.8072E-01  0.8072E-01  0.9310E-01
  0.9310E-01  0.1708      0.1708      0.1764      0.2233      0.3537    
  0.3537      0.4549      0.4549      0.4552      0.4552      0.5048    
  0.7961      0.7963       1.020       1.020       1.056       1.056    
   1.057       1.057       1.124       1.124       1.258       1.258    

 PREDICTED ENERGY CHANGE    -0.200E-06

 MAX GRADIENT      0.000120  THRESHOLD              0.000450 CONVERGED YES
 RMS GRADIENT      0.000050  THRESHOLD              0.000300 CONVERGED YES
 MAX DISPLAC.      0.002666  THRESHOLD              0.001800 CONVERGED NO
 RMS DISPLAC.      0.000897  THRESHOLD              0.001200 CONVERGED YES
 TTTTTTTTTTTTTTTTTTTTTTTTTTTTTT OPTI        TELAPSE      106.73 TCPU      104.27
 *******************************************************************************
 COORDINATE OPTIMIZATION - POINT    4
 *******************************************************************************
 LATTICE PARAMETERS (ANGSTROMS AND DEGREES) - BOHR = 0.5291772083 ANGSTROM
 PRIMITIVE CELL - CENTRING CODE 1/0 VOLUME=   412.228566 - DENSITY  0.725 g/cm^3
         A              B              C           ALPHA      BETA       GAMMA 
     7.40317242     7.40317242     8.68503800    90.000000  90.000000 120.000000
 *******************************************************************************
 ATOMS IN THE ASYMMETRIC UNIT   15 - ATOMS IN THE UNIT CELL:   15
     ATOM                 X/A                 Y/B                 Z/C    
 *******************************************************************************
      1 T   6 C     1.110371491876E-01 -4.444915664826E-01  3.001221297199E-01
      2 T   6 C     1.111581757114E-01 -1.110368791562E-01  3.000059605095E-01
      3 T   6 C     4.443703469603E-01  2.221754307923E-01  2.998638953012E-01
      4 T   6 C     4.444914671145E-01 -4.443703084995E-01  2.999768576330E-01
      5 T   6 C    -2.221751846725E-01  2.222964608225E-01  3.000240873050E-01
      6 T   6 C    -2.222966695789E-01 -1.111583314879E-01  3.000065204388E-01
      7 T   6 C     2.237007419287E-01  1.096327724082E-01  2.998657387992E-01
      8 T   6 C     2.237335423849E-01  4.474068147129E-01  3.001173035039E-01
      9 T   6 C     2.192596148391E-01 -2.237335308613E-01  3.001202599398E-01
     10 T   6 C    -4.429331216103E-01  1.140740643501E-01  2.999106718169E-01
     11 T   6 C    -4.474069553739E-01  4.429333457380E-01  2.998454231327E-01
     12 T   6 C    -4.429662294341E-01 -2.237008140033E-01  2.999627559000E-01
[...]
MPICH ERROR [Rank 113] [job id 2541589.18] [Mon Oct 31 23:57:24 2022] [nid005741] - Abort(1) (rank 113 in comm 0): application called MPI_Abort(MPI_COMM_WORLD, 1) - process 113

aborting job:
application called MPI_Abort(MPI_COMM_WORLD, 1) - process 113
MPICH ERROR [Rank 95] [job id 2541589.18] [Mon Oct 31 23:57:24 2022] [nid005741] - Abort(1) (rank 95 in comm 0): application called MPI_Abort(MPI_COMM_WORLD, 1) - process 95

aborting job:
application called MPI_Abort(MPI_COMM_WORLD, 1) - process 95
MPICH ERROR [Rank 106] [job id 2541589.18] [Mon Oct 31 23:57:24 2022] [nid005741] - Abort(1) (rank 106 in comm 0): application called MPI_Abort(MPI_COMM_WORLD, 1) - process 106

aborting job:
application called MPI_Abort(MPI_COMM_WORLD, 1) - process 106
MPICH ERROR [Rank 107] [job id 2541589.18] [Mon Oct 31 23:57:24 2022] [nid005741] - Abort(1) (rank 107 in comm 0): application called MPI_Abort(MPI_COMM_WORLD, 1) - process 107

aborting job:
application called MPI_Abort(MPI_COMM_WORLD, 1) - process 107
MPICH ERROR [Rank 93] [job id 2541589.18] [Mon Oct 31 23:57:24 2022] [nid005741] - Abort(1) (rank 93 in comm 0): application called MPI_Abort(MPI_COMM_WORLD, 1) - process 93

aborting job:
application called MPI_Abort(MPI_COMM_WORLD, 1) - process 93
MPICH ERROR [Rank 2] [job id 2541589.18] [Mon Oct 31 23:57:24 2022] [nid005741] - Abort(1) (rank 2 in comm 0): application called MPI_Abort(MPI_COMM_WORLD, 1) - process 2

aborting job:
application called MPI_Abort(MPI_COMM_WORLD, 1) - process 2
MPICH ERROR [Rank 59] [job id 2541589.18] [Mon Oct 31 23:57:24 2022] [nid005741] - Abort(1) (rank 59 in comm 0): application called MPI_Abort(MPI_COMM_WORLD, 1) - process 59

aborting job:
application called MPI_Abort(MPI_COMM_WORLD, 1) - process 59
MPICH ERROR [Rank 40] [job id 2541589.18] [Mon Oct 31 23:57:24 2022] [nid005741] - Abort(1) (rank 40 in comm 0): application called MPI_Abort(MPI_COMM_WORLD, 1) - process 40

aborting job:
application called MPI_Abort(MPI_COMM_WORLD, 1) - process 40
MPICH ERROR [Rank 38] [job id 2541589.18] [Mon Oct 31 23:57:24 2022] [nid005741] - Abort(1) (rank 38 in comm 0): application called MPI_Abort(MPI_COMM_WORLD, 1) - process 38

aborting job:
application called MPI_Abort(MPI_COMM_WORLD, 1) - process 38
MPICH ERROR [Rank 49] [job id 2541589.18] [Mon Oct 31 23:57:24 2022] [nid005741] - Abort(1) (rank 49 in comm 0): application called MPI_Abort(MPI_COMM_WORLD, 1) - process 49

aborting job:
application called MPI_Abort(MPI_COMM_WORLD, 1) - process 49
MPICH ERROR [Rank 43] [job id 2541589.18] [Mon Oct 31 23:57:24 2022] [nid005741] - Abort(1) (rank 43 in comm 0): application called MPI_Abort(MPI_COMM_WORLD, 1) - process 43

aborting job:
application called MPI_Abort(MPI_COMM_WORLD, 1) - process 43
MPICH ERROR [Rank 86] [job id 2541589.18] [Mon Oct 31 23:57:24 2022] [nid005741] - Abort(1) (rank 86 in comm 0): application called MPI_Abort(MPI_COMM_WORLD, 1) - process 86

aborting job:
application called MPI_Abort(MPI_COMM_WORLD, 1) - process 86
MPICH ERROR [Rank 36] [job id 2541589.18] [Mon Oct 31 23:57:24 2022] [nid005741] - Abort(1) (rank 36 in comm 0): application called MPI_Abort(MPI_COMM_WORLD, 1) - process 36

aborting job:
application called MPI_Abort(MPI_COMM_WORLD, 1) - process 36
MPICH ERROR [Rank 46] [job id 2541589.18] [Mon Oct 31 23:57:24 2022] [nid005741] - Abort(1) (rank 46 in comm 0): application called MPI_Abort(MPI_COMM_WORLD, 1) - process 46

aborting job:
application called MPI_Abort(MPI_COMM_WORLD, 1) - process 46
MPICH ERROR [Rank 28] [job id 2541589.18] [Mon Oct 31 23:57:24 2022] [nid005741] - Abort(1) (rank 28 in comm 0): application called MPI_Abort(MPI_COMM_WORLD, 1) - process 28

aborting job:
application called MPI_Abort(MPI_COMM_WORLD, 1) - process 28
MPICH ERROR [Rank 51] [job id 2541589.18] [Mon Oct 31 23:57:24 2022] [nid005741] - Abort(1) (rank 51 in comm 0): application called MPI_Abort(MPI_COMM_WORLD, 1) - process 51

aborting job:
application called MPI_Abort(MPI_COMM_WORLD, 1) - process 51
MPICH ERROR [Rank 123] [job id 2541589.18] [Mon Oct 31 23:57:24 2022] [nid005741] - Abort(1) (rank 123 in comm 0): application called MPI_Abort(MPI_COMM_WORLD, 1) - process 123

aborting job:
application called MPI_Abort(MPI_COMM_WORLD, 1) - process 123
MPICH ERROR [Rank 45] [job id 2541589.18] [Mon Oct 31 23:57:24 2022] [nid005741] - Abort(1) (rank 45 in comm 0): application called MPI_Abort(MPI_COMM_WORLD, 1) - process 45

aborting job:
application called MPI_Abort(MPI_COMM_WORLD, 1) - process 45
MPICH ERROR [Rank 77] [job id 2541589.18] [Mon Oct 31 23:57:24 2022] [nid005741] - Abort(1) (rank 77 in comm 0): application called MPI_Abort(MPI_COMM_WORLD, 1) - process 77

aborting job:
application called MPI_Abort(MPI_COMM_WORLD, 1) - process 77
MPICH ERROR [Rank 9] [job id 2541589.18] [Mon Oct 31 23:57:24 2022] [nid005741] - Abort(1) (rank 9 in comm 0): application called MPI_Abort(MPI_COMM_WORLD, 1) - process 9

aborting job:
application called MPI_Abort(MPI_COMM_WORLD, 1) - process 9
MPICH ERROR [Rank 10] [job id 2541589.18] [Mon Oct 31 23:57:24 2022] [nid005741] - Abort(1) (rank 10 in comm 0): application called MPI_Abort(MPI_COMM_WORLD, 1) - process 10

aborting job:
application called MPI_Abort(MPI_COMM_WORLD, 1) - process 10
MPICH ERROR [Rank 12] [job id 2541589.18] [Mon Oct 31 23:57:24 2022] [nid005741] - Abort(1) (rank 12 in comm 0): application called MPI_Abort(MPI_COMM_WORLD, 1) - process 12

aborting job:
application called MPI_Abort(MPI_COMM_WORLD, 1) - process 12
MPICH ERROR [Rank 13] [job id 2541589.18] [Mon Oct 31 23:57:24 2022] [nid005741] - Abort(1) (rank 13 in comm 0): application called MPI_Abort(MPI_COMM_WORLD, 1) - process 13

aborting job:
application called MPI_Abort(MPI_COMM_WORLD, 1) - process 13
MPICH ERROR [Rank 23] [job id 2541589.18] [Mon Oct 31 23:57:24 2022] [nid005741] - Abort(1) (rank 23 in comm 0): application called MPI_Abort(MPI_COMM_WORLD, 1) - process 23

aborting job:
application called MPI_Abort(MPI_COMM_WORLD, 1) - process 23
MPICH ERROR [Rank 99] [job id 2541589.18] [Mon Oct 31 23:57:24 2022] [nid005741] - Abort(1) (rank 99 in comm 0): application called MPI_Abort(MPI_COMM_WORLD, 1) - process 99

aborting job:
application called MPI_Abort(MPI_COMM_WORLD, 1) - process 99
MPICH ERROR [Rank 101] [job id 2541589.18] [Mon Oct 31 23:57:24 2022] [nid005741] - Abort(1) (rank 101 in comm 0): application called MPI_Abort(MPI_COMM_WORLD, 1) - process 101

aborting job:
application called MPI_Abort(MPI_COMM_WORLD, 1) - process 101
MPICH ERROR [Rank 121] [job id 2541589.18] [Mon Oct 31 23:57:24 2022] [nid005741] - Abort(1) (rank 121 in comm 0): application called MPI_Abort(MPI_COMM_WORLD, 1) - process 121

aborting job:
application called MPI_Abort(MPI_COMM_WORLD, 1) - process 121
MPICH ERROR [Rank 117] [job id 2541589.18] [Mon Oct 31 23:57:24 2022] [nid005741] - Abort(1) (rank 117 in comm 0): application called MPI_Abort(MPI_COMM_WORLD, 1) - process 117

aborting job:
application called MPI_Abort(MPI_COMM_WORLD, 1) - process 117
MPICH ERROR [Rank 104] [job id 2541589.18] [Mon Oct 31 23:57:24 2022] [nid005741] - Abort(1) (rank 104 in comm 0): application called MPI_Abort(MPI_COMM_WORLD, 1) - process 104

aborting job:
application called MPI_Abort(MPI_COMM_WORLD, 1) - process 104
MPICH ERROR [Rank 105] [job id 2541589.18] [Mon Oct 31 23:57:24 2022] [nid005741] - Abort(1) (rank 105 in comm 0): application called MPI_Abort(MPI_COMM_WORLD, 1) - process 105

aborting job:
application called MPI_Abort(MPI_COMM_WORLD, 1) - process 105
MPICH ERROR [Rank 65] [job id 2541589.18] [Mon Oct 31 23:57:24 2022] [nid005741] - Abort(1) (rank 65 in comm 0): application called MPI_Abort(MPI_COMM_WORLD, 1) - process 65

aborting job:
application called MPI_Abort(MPI_COMM_WORLD, 1) - process 65
MPICH ERROR [Rank 94] [job id 2541589.18] [Mon Oct 31 23:57:24 2022] [nid005741] - Abort(1) (rank 94 in comm 0): application called MPI_Abort(MPI_COMM_WORLD, 1) - process 94

aborting job:
application called MPI_Abort(MPI_COMM_WORLD, 1) - process 94
MPICH ERROR [Rank 81] [job id 2541589.18] [Mon Oct 31 23:57:24 2022] [nid005741] - Abort(1) (rank 81 in comm 0): application called MPI_Abort(MPI_COMM_WORLD, 1) - process 81

aborting job:
application called MPI_Abort(MPI_COMM_WORLD, 1) - process 81
MPICH ERROR [Rank 17] [job id 2541589.18] [Mon Oct 31 23:57:24 2022] [nid005741] - Abort(1) (rank 17 in comm 0): application called MPI_Abort(MPI_COMM_WORLD, 1) - process 17

aborting job:
application called MPI_Abort(MPI_COMM_WORLD, 1) - process 17
MPICH ERROR [Rank 63] [job id 2541589.18] [Mon Oct 31 23:57:24 2022] [nid005741] - Abort(1) (rank 63 in comm 0): application called MPI_Abort(MPI_COMM_WORLD, 1) - process 63

aborting job:
application called MPI_Abort(MPI_COMM_WORLD, 1) - process 63
MPICH ERROR [Rank 4] [job id 2541589.18] [Mon Oct 31 23:57:24 2022] [nid005741] - Abort(1) (rank 4 in comm 0): application called MPI_Abort(MPI_COMM_WORLD, 1) - process 4

aborting job:
application called MPI_Abort(MPI_COMM_WORLD, 1) - process 4
MPICH ERROR [Rank 54] [job id 2541589.18] [Mon Oct 31 23:57:24 2022] [nid005741] - Abort(1) (rank 54 in comm 0): application called MPI_Abort(MPI_COMM_WORLD, 1) - process 54

aborting job:
application called MPI_Abort(MPI_COMM_WORLD, 1) - process 54
MPICH ERROR [Rank 11] [job id 2541589.18] [Mon Oct 31 23:57:24 2022] [nid005741] - Abort(1) (rank 11 in comm 0): application called MPI_Abort(MPI_COMM_WORLD, 1) - process 11

aborting job:
application called MPI_Abort(MPI_COMM_WORLD, 1) - process 11
MPICH ERROR [Rank 22] [job id 2541589.18] [Mon Oct 31 23:57:24 2022] [nid005741] - Abort(1) (rank 22 in comm 0): application called MPI_Abort(MPI_COMM_WORLD, 1) - process 22

aborting job:
application called MPI_Abort(MPI_COMM_WORLD, 1) - process 22
MPICH ERROR [Rank 109] [job id 2541589.18] [Mon Oct 31 23:57:24 2022] [nid005741] - Abort(1) (rank 109 in comm 0): application called MPI_Abort(MPI_COMM_WORLD, 1) - process 109

aborting job:
application called MPI_Abort(MPI_COMM_WORLD, 1) - process 109
MPICH ERROR [Rank 98] [job id 2541589.18] [Mon Oct 31 23:57:24 2022] [nid005741] - Abort(1) (rank 98 in comm 0): application called MPI_Abort(MPI_COMM_WORLD, 1) - process 98

aborting job:
application called MPI_Abort(MPI_COMM_WORLD, 1) - process 98
MPICH ERROR [Rank 3] [job id 2541589.18] [Mon Oct 31 23:57:24 2022] [nid005741] - Abort(1) (rank 3 in comm 0): application called MPI_Abort(MPI_COMM_WORLD, 1) - process 3

aborting job:
application called MPI_Abort(MPI_COMM_WORLD, 1) - process 3
MPICH ERROR [Rank 55] [job id 2541589.18] [Mon Oct 31 23:57:24 2022] [nid005741] - Abort(1) (rank 55 in comm 0): application called MPI_Abort(MPI_COMM_WORLD, 1) - process 55

aborting job:
application called MPI_Abort(MPI_COMM_WORLD, 1) - process 55
MPICH ERROR [Rank 87] [job id 2541589.18] [Mon Oct 31 23:57:24 2022] [nid005741] - Abort(1) (rank 87 in comm 0): application called MPI_Abort(MPI_COMM_WORLD, 1) - process 87

aborting job:
application called MPI_Abort(MPI_COMM_WORLD, 1) - process 87
MPICH ERROR [Rank 126] [job id 2541589.18] [Mon Oct 31 23:57:24 2022] [nid005741] - Abort(1) (rank 126 in comm 0): application called MPI_Abort(MPI_COMM_WORLD, 1) - process 126

aborting job:
application called MPI_Abort(MPI_COMM_WORLD, 1) - process 126
MPICH ERROR [Rank 83] [job id 2541589.18] [Mon Oct 31 23:57:24 2022] [nid005741] - Abort(1) (rank 83 in comm 0): application called MPI_Abort(MPI_COMM_WORLD, 1) - process 83

aborting job:
application called MPI_Abort(MPI_COMM_WORLD, 1) - process 83
MPICH ERROR [Rank 89] [job id 2541589.18] [Mon Oct 31 23:57:24 2022] [nid005741] - Abort(1) (rank 89 in comm 0): application called MPI_Abort(MPI_COMM_WORLD, 1) - process 89

aborting job:
application called MPI_Abort(MPI_COMM_WORLD, 1) - process 89
MPICH ERROR [Rank 88] [job id 2541589.18] [Mon Oct 31 23:57:24 2022] [nid005741] - Abort(1) (rank 88 in comm 0): application called MPI_Abort(MPI_COMM_WORLD, 1) - process 88

aborting job:
application called MPI_Abort(MPI_COMM_WORLD, 1) - process 88
MPICH ERROR [Rank 125] [job id 2541589.18] [Mon Oct 31 23:57:24 2022] [nid005741] - Abort(1) (rank 125 in comm 0): application called MPI_Abort(MPI_COMM_WORLD, 1) - process 125

aborting job:
application called MPI_Abort(MPI_COMM_WORLD, 1) - process 125
MPICH ERROR [Rank 47] [job id 2541589.18] [Mon Oct 31 23:57:24 2022] [nid005741] - Abort(1) (rank 47 in comm 0): application called MPI_Abort(MPI_COMM_WORLD, 1) - process 47

aborting job:
application called MPI_Abort(MPI_COMM_WORLD, 1) - process 47
MPICH ERROR [Rank 20] [job id 2541589.18] [Mon Oct 31 23:57:24 2022] [nid005741] - Abort(1) (rank 20 in comm 0): application called MPI_Abort(MPI_COMM_WORLD, 1) - process 20

aborting job:
application called MPI_Abort(MPI_COMM_WORLD, 1) - process 20
MPICH ERROR [Rank 24] [job id 2541589.18] [Mon Oct 31 23:57:24 2022] [nid005741] - Abort(1) (rank 24 in comm 0): application called MPI_Abort(MPI_COMM_WORLD, 1) - process 24

aborting job:
application called MPI_Abort(MPI_COMM_WORLD, 1) - process 24
MPICH ERROR [Rank 29] [job id 2541589.18] [Mon Oct 31 23:57:24 2022] [nid005741] - Abort(1) (rank 29 in comm 0): application called MPI_Abort(MPI_COMM_WORLD, 1) - process 29

aborting job:
application called MPI_Abort(MPI_COMM_WORLD, 1) - process 29
MPICH ERROR [Rank 31] [job id 2541589.18] [Mon Oct 31 23:57:24 2022] [nid005741] - Abort(1) (rank 31 in comm 0): application called MPI_Abort(MPI_COMM_WORLD, 1) - process 31

aborting job:
application called MPI_Abort(MPI_COMM_WORLD, 1) - process 31
MPICH ERROR [Rank 41] [job id 2541589.18] [Mon Oct 31 23:57:24 2022] [nid005741] - Abort(1) (rank 41 in comm 0): application called MPI_Abort(MPI_COMM_WORLD, 1) - process 41

aborting job:
application called MPI_Abort(MPI_COMM_WORLD, 1) - process 41
MPICH ERROR [Rank 5] [job id 2541589.18] [Mon Oct 31 23:57:24 2022] [nid005741] - Abort(1) (rank 5 in comm 0): application called MPI_Abort(MPI_COMM_WORLD, 1) - process 5

aborting job:
application called MPI_Abort(MPI_COMM_WORLD, 1) - process 5
MPICH ERROR [Rank 33] [job id 2541589.18] [Mon Oct 31 23:57:24 2022] [nid005741] - Abort(1) (rank 33 in comm 0): application called MPI_Abort(MPI_COMM_WORLD, 1) - process 33

aborting job:
application called MPI_Abort(MPI_COMM_WORLD, 1) - process 33
MPICH ERROR [Rank 85] [job id 2541589.18] [Mon Oct 31 23:57:24 2022] [nid005741] - Abort(1) (rank 85 in comm 0): application called MPI_Abort(MPI_COMM_WORLD, 1) - process 85

aborting job:
application called MPI_Abort(MPI_COMM_WORLD, 1) - process 85
MPICH ERROR [Rank 111] [job id 2541589.18] [Mon Oct 31 23:57:24 2022] [nid005741] - Abort(1) (rank 111 in comm 0): application called MPI_Abort(MPI_COMM_WORLD, 1) - process 111

aborting job:
application called MPI_Abort(MPI_COMM_WORLD, 1) - process 111
MPICH ERROR [Rank 34] [job id 2541589.18] [Mon Oct 31 23:57:24 2022] [nid005741] - Abort(1) (rank 34 in comm 0): application called MPI_Abort(MPI_COMM_WORLD, 1) - process 34

aborting job:
application called MPI_Abort(MPI_COMM_WORLD, 1) - process 34
MPICH ERROR [Rank 68] [job id 2541589.18] [Mon Oct 31 23:57:24 2022] [nid005741] - Abort(1) (rank 68 in comm 0): application called MPI_Abort(MPI_COMM_WORLD, 1) - process 68

aborting job:
application called MPI_Abort(MPI_COMM_WORLD, 1) - process 68
MPICH ERROR [Rank 14] [job id 2541589.18] [Mon Oct 31 23:57:24 2022] [nid005741] - Abort(1) (rank 14 in comm 0): application called MPI_Abort(MPI_COMM_WORLD, 1) - process 14

aborting job:
application called MPI_Abort(MPI_COMM_WORLD, 1) - process 14
MPICH ERROR [Rank 15] [job id 2541589.18] [Mon Oct 31 23:57:24 2022] [nid005741] - Abort(1) (rank 15 in comm 0): application called MPI_Abort(MPI_COMM_WORLD, 1) - process 15

aborting job:
application called MPI_Abort(MPI_COMM_WORLD, 1) - process 15
MPICH ERROR [Rank 124] [job id 2541589.18] [Mon Oct 31 23:57:24 2022] [nid005741] - Abort(1) (rank 124 in comm 0): application called MPI_Abort(MPI_COMM_WORLD, 1) - process 124

aborting job:
application called MPI_Abort(MPI_COMM_WORLD, 1) - process 124
MPICH ERROR [Rank 35] [job id 2541589.18] [Mon Oct 31 23:57:24 2022] [nid005741] - Abort(1) (rank 35 in comm 0): application called MPI_Abort(MPI_COMM_WORLD, 1) - process 35

aborting job:
application called MPI_Abort(MPI_COMM_WORLD, 1) - process 35
MPICH ERROR [Rank 37] [job id 2541589.18] [Mon Oct 31 23:57:24 2022] [nid005741] - Abort(1) (rank 37 in comm 0): application called MPI_Abort(MPI_COMM_WORLD, 1) - process 37

aborting job:
application called MPI_Abort(MPI_COMM_WORLD, 1) - process 37
MPICH ERROR [Rank 66] [job id 2541589.18] [Mon Oct 31 23:57:24 2022] [nid005741] - Abort(1) (rank 66 in comm 0): application called MPI_Abort(MPI_COMM_WORLD, 1) - process 66

aborting job:
application called MPI_Abort(MPI_COMM_WORLD, 1) - process 66
MPICH ERROR [Rank 50] [job id 2541589.18] [Mon Oct 31 23:57:24 2022] [nid005741] - Abort(1) (rank 50 in comm 0): application called MPI_Abort(MPI_COMM_WORLD, 1) - process 50

aborting job:
application called MPI_Abort(MPI_COMM_WORLD, 1) - process 50
MPICH ERROR [Rank 53] [job id 2541589.18] [Mon Oct 31 23:57:24 2022] [nid005741] - Abort(1) (rank 53 in comm 0): application called MPI_Abort(MPI_COMM_WORLD, 1) - process 53

aborting job:
application called MPI_Abort(MPI_COMM_WORLD, 1) - process 53
MPICH ERROR [Rank 0] [job id 2541589.18] [Mon Oct 31 23:57:24 2022] [nid005741] - Abort(1) (rank 0 in comm 0): application called MPI_Abort(MPI_COMM_WORLD, 1) - process 0

aborting job:
application called MPI_Abort(MPI_COMM_WORLD, 1) - process 0
MPICH ERROR [Rank 56] [job id 2541589.18] [Mon Oct 31 23:57:24 2022] [nid005741] - Abort(1) (rank 56 in comm 0): application called MPI_Abort(MPI_COMM_WORLD, 1) - process 56

aborting job:
application called MPI_Abort(MPI_COMM_WORLD, 1) - process 56
MPICH ERROR [Rank 114] [job id 2541589.18] [Mon Oct 31 23:57:24 2022] [nid005741] - Abort(1) (rank 114 in comm 0): application called MPI_Abort(MPI_COMM_WORLD, 1) - process 114

aborting job:
application called MPI_Abort(MPI_COMM_WORLD, 1) - process 114
MPICH ERROR [Rank 60] [job id 2541589.18] [Mon Oct 31 23:57:24 2022] [nid005741] - Abort(1) (rank 60 in comm 0): application called MPI_Abort(MPI_COMM_WORLD, 1) - process 60

aborting job:
application called MPI_Abort(MPI_COMM_WORLD, 1) - process 60
MPICH ERROR [Rank 82] [job id 2541589.18] [Mon Oct 31 23:57:24 2022] [nid005741] - Abort(1) (rank 82 in comm 0): application called MPI_Abort(MPI_COMM_WORLD, 1) - process 82

aborting job:
application called MPI_Abort(MPI_COMM_WORLD, 1) - process 82
MPICH ERROR [Rank 44] [job id 2541589.18] [Mon Oct 31 23:57:24 2022] [nid005741] - Abort(1) (rank 44 in comm 0): application called MPI_Abort(MPI_COMM_WORLD, 1) - process 44

aborting job:
application called MPI_Abort(MPI_COMM_WORLD, 1) - process 44
srun: error: nid005741: tasks 0-127: Exited with exit code 255
srun: launch/slurm: _step_signal: Terminating StepId=2541589.18
end_date Mon Oct 31 23:57:24 GMT 2022
 
TEMPORARY          SAVED (in /mnt/lustre/a2fs-work2/work/e05/e05/bcamino/quantum_computing/test_model/optgeom)
binary wf (fort.9) is not written on this node
fort.87            graphene_3v_L.ERROR120      Oct 31 23:57
fort.34            graphene_3v_L.gui 1311     Oct 31 23:57
fort.33            graphene_3v_L.xyz 31341    Oct 31 23:57
SCFOUT.LOG         graphene_3v_L.SCFLOG779766   Oct 31 23:57
OPTINFO.DAT        graphene_3v_L.OPTINFO11906031 Oct 31 23:57
HESSOPT.DAT        graphene_3v_L.HESSOPT37485    Oct 31 23:57
opta001            opta002            
Disk usage:<du -m>
508	/mnt/lustre/a2fs-work2/work/e05/e05/bcamino/quantum_computing/test_model/optgeom/tmp_graphene_3v_L_
</du -m>
Filesystem                                          1K-blocks          Used     Available Use% Mounted on
10.253.102.2@o2ib1:10.253.102.3@o2ib1:/cls01097 3582178503216 1817228089896 1728728309328  52% /mnt/lustre/a2fs-work2
10.253.102.2@o2ib1:10.253.102.3@o2ib1:/cls01097 3582178503216 1817228089896 1728728309328  52% /mnt/lustre/a2fs-work2
