date:                Mon Oct 31 21:00:11 GMT 2022
hostname:            nid005741
system:              Linux nid005741 4.12.14-197.78_9.1.64-cray_shasta_c #1 SMP Wed Aug 25 14:56:40 UTC 2021 (4e2a900) x86_64 x86_64 x86_64 GNU/Linux
user:                bcamino
input:               /mnt/lustre/a2fs-work2/work/e05/e05/bcamino/quantum_computing/test_model/optgeom/graphene_3v_G.d12
output:              /mnt/lustre/a2fs-work2/work/e05/e05/bcamino/quantum_computing/test_model/optgeom/graphene_3v_G.out
executable script:   /work/e05/e05/bcamino/runCRYSTAL/Pcry_slurm
executable:          Pcrystal
Command:             srun --hint=nomultithread --distribution=block:block Pcrystal
Slurm JobID:         
temporary directory: /mnt/lustre/a2fs-work2/work/e05/e05/bcamino/quantum_computing/test_model/optgeom/tmp_graphene_3v_G_      
input data /mnt/lustre/a2fs-work2/work/e05/e05/bcamino/quantum_computing/test_model/optgeom/graphene_3v_G.d12
Final
EXTERNAL
SYMMREMO
OPTGEOM
ATOMONLY
END
END
6 8
0 0 6 2.0 1.0
  13575.349682      0.00022245814352
  2035.2333680      0.00172327382520
  463.22562359      0.00892557153140
  131.20019598      0.03572798450200
  42.853015891      0.11076259931000
  15.584185766      0.24295627626000
0 0 2 2.0 1.0
  6.2067138508      0.41440263448000
  2.5764896527      0.23744968655000
0 0 1 0.0 1.0
  0.4941102000      1.00000000000000
0 0 1 0.0 1.0
  0.1644071000      1.00000000000000
0 2 4 2.0 1.0
  34.697232244      0.00533336578050
  7.9582622826      0.03586410909200
  2.3780826883      0.14215873329000
  0.8143320818      0.34270471845000
0 2 1 0.0 1.0
  0.5662417100      1.00000000000000
0 2 1 0.0 1.0
  0.1973545000      1.00000000000000
0 3 1 0.0 1.0
  0.5791584200      1.00000000000000
99 0
ENDBS
DFT
PBE  
ENDDFT
TOLINTEG
8 8 8 8 16
SCFDIR
SHRINK
8 16  
MAXCYCLE
200
TOLDEE
9 
ENDSCF
input data /mnt/lustre/a2fs-work2/work/e05/e05/bcamino/quantum_computing/test_model/optgeom/graphene_3v_G.gui
         128 PROCESSORS WORKING

         
 *******************************************************************************
 *                                                                             *
 *                               CRYSTAL17                                     *
 *                      public : 1.0.2 - March 1st, 2018 STFC/Archer2 build    *
 *                       HTTP://WWW.CRYSTAL.UNITO.IT                           *
 *                                                                             *
 *                              MAIN AUTHORS                                   *
 *                                                                             *
 *  R. DOVESI(1,11), V.R. SAUNDERS(2), C. ROETTI(1,11), R. ORLANDO(1,11),      *
 *  C.M. ZICOVICH-WILSON(1,3), F. PASCALE(4), B. CIVALLERI(1,11),              *
 *  K. DOLL(5), N.M. HARRISON(2,6), I.J. BUSH(7), Ph. D'ARCO(8),               *
 *  M. LLUNELL(9), M. CAUSA'(10), Y. NOEL(8), L. MASCHIO(1,11), A. ERBA(1,11)  *
 *  M. RE'RAT(14), S. CASASSA(1,11)                                            *
 *                                                                             *
 *        CONTRIBUTIONS TO THE CODE HAVE ALSO BEEN GIVEN BY                    *
 *                                                                             *
 *  M. FERRABONE(1,11), M. DE LA PIERRE(1,11), M. FERRERO(1,11),               *
 *  J. BAIMA(1,11), E. ALBANESE(1,11), M.F. PEINTINGER(12), R. BAST(13),       *
 *  B. KIRTMAN(15), V. LACIVITA(1,11), R. DEMICHELIS(1,16)                     *
 *  G. BRANDEBURG(17), S. SALUSTRO(1,11), G. SANSONE(1,11)                     *
 *  M.T. RUGGIERO(18)                                                          *
 *                                                                             *
 * (1) THEORETICAL CHEMISTRY GROUP - UNIVERSITA' DI TORINO - TORINO (ITALY)    *
 * (2) COMPUTATIONAL SCIENCE & ENGINEERING DEPARTMENT - STFC DARESBURY (UK)    *
 * (3) UNIVERSIDAD AUTONOMA DEL ESTADO DE MORELOS - CUERNAVACA (MEXICO)        *
 * (4) UNIVERSITE' DE LORRAINE - NANCY (FRANCE)                                *
 * (5) UNIVERSITAET STUTTGART- STUTTGART (GERMANY)                             *
 * (6) IMPERIAL COLLEGE - LONDON (UK)                                          *
 * (7) OXFORD E-RESEARCH CENTRE - OXFORD (UK)                                  *
 * (8) UPMC - SORBONNE UNIVERSITES - PARIS (FRANCE)                            *
 * (9) UNIVERSIDAD DE BARCELONA - BARCELONA (SPAIN)                            *
 *(10) UNIVERSITA' DI NAPOLI "FEDERICO II" - NAPOLI (ITALY)                    *
 *(11) NIS - NANOSTRUCTURED INTERFACES AND SURFACES - TORINO (ITALY)           *
 *(12) MPI FUER CHEMISCHE ENERGIEKONVERSION - MUELHEIM AN DER RUHR (GERMANY)   *
 *(13) UNIVERSITY OF TROMSO - TROMSO (NORWAY)                                  *
 *(14) UNIVERSITE' DE PAU ET DES PAYS DE L'ADOUR - PAU (FRANCE)                *
 *(15) UNIVERSITY OF CALIFORNIA SANTA BARBARA - SANTA BARBARA (USA)            *
 *(16) CURTIN UNIVERSITY - PERTH (AUSTRALIA)                                   *
 *(17) UNIVERSITY COLLEGE LONDON - LONDON (UK)                                 *
 *(18) CAMBRIDGE UNIVERSITY - CAMBRIDGE (UK)                                   *
 *                                                                             *
 *******************************************************************************
 EEEEEEEEEE STARTING  DATE 31 10 2022 TIME 21:00:13.9
 Final                                                                           

 GEOMETRY INPUT FROM EXTERNAL FILE (FORTRAN UNIT 34)
 3D - CRYSTAL 

 *******************************************************************************
 LATTICE PARAMETERS  (ANGSTROMS AND DEGREES) - PRIMITIVE CELL
       A          B          C        ALPHA      BETA     GAMMA        VOLUME
    7.40317    7.40317    8.68504    90.00000  90.00000 120.00000    412.228566
 INFORMATION **** CHKGRP **** SPGR WITH NO INVERSION

 NUMBER OF IRREDUCIBLE ATOMS IN THE CELL:   15

 CARTESIAN COORDINATES (ANGSTROM) - IRREDUCIBLE ATOMS AND SYMMETRY RELATED

 AT.IRR.  AT  AT.N.          X                   Y                   Z
     1     1     6    3.701586212049E+00  4.986594190562E+00  2.605511400000E+00
     2     2     6    2.467724141366E+00 -1.424741197304E+00  2.605511400000E+00
     3     3     6    3.701586212049E+00  7.123705986520E-01  2.605511400000E+00
     4     4     6    4.935448282733E+00  2.849482394607E+00  2.605511400000E+00
     5     5     6    4.935448282733E+00 -1.424741197304E+00  2.605511400000E+00
     6     6     6    6.169310353416E+00  7.123705986520E-01  2.605511400000E+00
     7     7     6    1.233862070683E+00 -7.123705986520E-01  2.605511400000E+00
     8     8     6    2.467724141366E+00  1.424741197304E+00  2.605511400000E+00
     9     9     6    3.701586212049E+00  3.561852993259E+00  2.605511400000E+00
    10    10     6    2.467724141366E+00 -2.849482394607E+00  2.605511400000E+00
    11    11     6    3.701586212049E+00 -7.123705986520E-01  2.605511400000E+00
    12    12     6    4.935448282733E+00  1.424741197304E+00  2.605511400000E+00
    13    13     6    3.701586212049E+00 -4.986594190562E+00  2.605511400000E+00
    14    14     6    4.935448282733E+00 -2.849482394607E+00  2.605511400000E+00
    15    15     6    6.169310353416E+00 -7.123705986520E-01  2.605511400000E+00

 SPACE  GROUP  N.                     :    1
 NUMBER OF SYMMETRY OPERATORS         :    1
 *******************************************************************************
 LATTICE PARAMETERS (ANGSTROMS AND DEGREES) - BOHR = 0.5291772083 ANGSTROM
 PRIMITIVE CELL - CENTRING CODE 1/0 VOLUME=   412.228566 - DENSITY  0.725 g/cm^3
         A              B              C           ALPHA      BETA       GAMMA 
     7.40317242     7.40317242     8.68503800    90.000000  90.000000 120.000000
 *******************************************************************************
 ATOMS IN THE ASYMMETRIC UNIT   15 - ATOMS IN THE UNIT CELL:   15
     ATOM                 X/A                 Y/B                 Z/C    
 *******************************************************************************
      1 T   6 C     1.111111111111E-01 -1.111111111111E-01  3.000000000000E-01
      2 T   6 C     4.444444444445E-01  2.222222222222E-01  3.000000000000E-01
      3 T   6 C     4.444444444444E-01 -4.444444444444E-01  3.000000000000E-01
      4 T   6 C     4.444444444446E-01 -1.111111111110E-01  3.000000000000E-01
      5 T   6 C    -2.222222222221E-01 -4.444444444443E-01  3.000000000000E-01
      6 T   6 C    -2.222222222221E-01 -1.111111111110E-01  3.000000000000E-01
      7 T   6 C     2.222222222222E-01  1.111111111111E-01  3.000000000000E-01
      8 T   6 C     2.222222222222E-01  4.444444444445E-01  3.000000000000E-01
      9 T   6 C     2.222222222222E-01 -2.222222222222E-01  3.000000000000E-01
     10 T   6 C    -4.444444444445E-01  1.111111111111E-01  3.000000000000E-01
     11 T   6 C    -4.444444444444E-01  4.444444444444E-01  3.000000000000E-01
     12 T   6 C    -4.444444444443E-01 -2.222222222221E-01  3.000000000000E-01
     13 T   6 C    -1.111111111111E-01  1.111111111111E-01  3.000000000000E-01
     14 T   6 C    -1.111111111110E-01  4.444444444446E-01  3.000000000000E-01
     15 T   6 C    -1.111111111110E-01 -2.222222222221E-01  3.000000000000E-01

 T = ATOM BELONGING TO THE ASYMMETRIC UNIT
 *******************************************************************************
 * GEOMETRY EDITING - INPUT COORDINATES ARE GIVEN IN ANGSTROM         
 *******************************************************************************

 USE OF SYMMETRY WILL BE SUBSEQUENTLY SUSPENDED
 INFORMATION **** NEW DEFAULT **** FINALRUN 4 FOR GEOMETRY OPTIMIZATIONS
 INFORMATION **** NEW DEFAULT **** OPTGEOM OPTIMIZES BOTH ATOMIC COORDINATES AND CELL PARAMETERS
 INFORMATION **** NEW DEFAULT **** TOL. ON ATOMIC DISP TO REDEFINE REF. GEOMETRY: 0.8 Angs
 INFORMATION **** NEW DEFAULT **** N POINTS TO REDEFINE REF. GEOMETRY: N OF OPT DEGS OF FREEDOM
 INFORMATION **** NEW DEFAULT **** TOL. ON ENERGY TO REDEFINE REF. GEOMETRY: 10**-3*(5*N. ATOMS)
 INFORMATION **** ATOMONLY **** ONLY ATOMIC COORDINATES ARE OPTIMIZED

 IMPORTANT INFORMATION:
 THE COORDINATE SYSTEM ADOPTED IN THE OPTIMIZATION IS NOT IN
 GENERAL HOMOGENEOUS UNITS. FOR THIS REASON THE GRADIENT AND 
 HESSIAN MATRIX IN TERMS OF THIS SYSTEM ARE GIVEN WITHOUT
 UNITS. FOR MORE DETAILS SEE THE MANUAL.

 *******************************************************************************
 ATOMIC POSITIONS OPTIMIZATION CONTROL

 INITIAL TRUST RADIUS         0.50000 MAXIMUM TRUST RADIUS               4.00000
 MAXIMUM GRADIENT COMPONENT   0.00045 MAXIMUM DISPLACEMENT COMPONENT     0.00180
 R.M.S. OF GRADIENT COMPONENT 0.00030 R.M.S. OF DISPLACEMENT COMPONENTS  0.00120
 THRESHOLD ON ENERGY CHANGE 0.100E-06 EXTRAPOLATING POLYNOMIAL ORDER           2
 MAXIMUM ALLOWED NUMBER OF STEPS   -1 SORTING OF ENERGY POINTS:               NO
 ANALYTICAL  GRADIENT                 HESSIAN UPDATING                      BFGS
 STEP SIZE NUMERICAL GRADIENT 0.00100
 INITIAL HESSIAN MATRIX: SCHLEGEL MODEL 2
 *******************************************************************************


 GCALCO - MAX INDICES DIRECT LATTICE VECTOR    16    16    12
 NO.OF VECTORS CREATED 6999 STARS  379 RMAX   166.99060 BOHR

 GEOMETRY FOR WAVE FUNCTION - DIMENSIONALITY OF THE SYSTEM    3
 (NON PERIODIC DIRECTION: LATTICE PARAMETER FORMALLY SET TO 500)
 *******************************************************************************
 LATTICE PARAMETERS (ANGSTROMS AND DEGREES) - BOHR = 0.5291772083 ANGSTROM
 PRIMITIVE CELL - CENTRING CODE 1/0 VOLUME=   412.228566 - DENSITY  0.725 g/cm^3
         A              B              C           ALPHA      BETA       GAMMA 
     7.40317242     7.40317242     8.68503800    90.000000  90.000000 120.000000
 *******************************************************************************
 ATOMS IN THE ASYMMETRIC UNIT   15 - ATOMS IN THE UNIT CELL:   15
     ATOM                 X/A                 Y/B                 Z/C    
 *******************************************************************************
      1 T   6 C     1.111111111111E-01 -1.111111111111E-01  3.000000000000E-01
      2 T   6 C     4.444444444445E-01  2.222222222222E-01  3.000000000000E-01
      3 T   6 C     4.444444444444E-01 -4.444444444444E-01  3.000000000000E-01
      4 T   6 C     4.444444444446E-01 -1.111111111110E-01  3.000000000000E-01
      5 T   6 C    -2.222222222221E-01 -4.444444444443E-01  3.000000000000E-01
      6 T   6 C    -2.222222222221E-01 -1.111111111110E-01  3.000000000000E-01
      7 T   6 C     2.222222222222E-01  1.111111111111E-01  3.000000000000E-01
      8 T   6 C     2.222222222222E-01  4.444444444445E-01  3.000000000000E-01
      9 T   6 C     2.222222222222E-01 -2.222222222222E-01  3.000000000000E-01
     10 T   6 C    -4.444444444445E-01  1.111111111111E-01  3.000000000000E-01
     11 T   6 C    -4.444444444444E-01  4.444444444444E-01  3.000000000000E-01
     12 T   6 C    -4.444444444443E-01 -2.222222222221E-01  3.000000000000E-01
     13 T   6 C    -1.111111111111E-01  1.111111111111E-01  3.000000000000E-01
     14 T   6 C    -1.111111111110E-01  4.444444444446E-01  3.000000000000E-01
     15 T   6 C    -1.111111111110E-01 -2.222222222221E-01  3.000000000000E-01

 T = ATOM BELONGING TO THE ASYMMETRIC UNIT

 ****    1 SYMMOPS - TRANSLATORS IN FRACTIONAL UNITS
 **** MATRICES AND TRANSLATORS IN THE CRYSTALLOGRAPHIC REFERENCE FRAME
   V INV                    ROTATION MATRICES                   TRANSLATORS
   1   1  1.00  0.00  0.00  0.00  1.00  0.00  0.00  0.00  1.00  0.00  0.00  0.00

 DIRECT LATTICE VECTORS CARTESIAN COMPONENTS (ANGSTROM)
          X                    Y                    Z
   0.370158621205E+01  -0.641133538787E+01   0.000000000000E+00
   0.370158621205E+01   0.641133538787E+01   0.000000000000E+00
   0.000000000000E+00   0.000000000000E+00   0.868503800000E+01


 CARTESIAN COORDINATES - PRIMITIVE CELL
 *******************************************************************************
 *      ATOM          X(ANGSTROM)         Y(ANGSTROM)         Z(ANGSTROM)
 *******************************************************************************
    1     6 C     3.701586212049E+00  4.986594190562E+00  2.605511400000E+00
    2     6 C     2.467724141366E+00 -1.424741197304E+00  2.605511400000E+00
    3     6 C     3.701586212049E+00  7.123705986520E-01  2.605511400000E+00
    4     6 C     4.935448282733E+00  2.849482394607E+00  2.605511400000E+00
    5     6 C     4.935448282733E+00 -1.424741197304E+00  2.605511400000E+00
    6     6 C     6.169310353416E+00  7.123705986520E-01  2.605511400000E+00
    7     6 C     1.233862070683E+00 -7.123705986520E-01  2.605511400000E+00
    8     6 C     2.467724141366E+00  1.424741197304E+00  2.605511400000E+00
    9     6 C     3.701586212049E+00  3.561852993259E+00  2.605511400000E+00
   10     6 C     2.467724141366E+00 -2.849482394607E+00  2.605511400000E+00
   11     6 C     3.701586212049E+00 -7.123705986520E-01  2.605511400000E+00
   12     6 C     4.935448282733E+00  1.424741197304E+00  2.605511400000E+00
   13     6 C     3.701586212049E+00 -4.986594190562E+00  2.605511400000E+00
   14     6 C     4.935448282733E+00 -2.849482394607E+00  2.605511400000E+00
   15     6 C     6.169310353416E+00 -7.123705986520E-01  2.605511400000E+00

 *******************************************************************************
 LOCAL ATOMIC FUNCTIONS BASIS SET
 *******************************************************************************
   ATOM   X(AU)   Y(AU)   Z(AU)  N. TYPE  EXPONENT  S COEF   P COEF   D/F/G COEF
 *******************************************************************************
   1 C    6.995   9.423   4.924
                                  1 S  
                                         1.358E+04 2.225E-04 0.000E+00 0.000E+00
                                         2.035E+03 1.723E-03 0.000E+00 0.000E+00
                                         4.632E+02 8.926E-03 0.000E+00 0.000E+00
                                         1.312E+02 3.573E-02 0.000E+00 0.000E+00
                                         4.285E+01 1.108E-01 0.000E+00 0.000E+00
                                         1.558E+01 2.430E-01 0.000E+00 0.000E+00
                                  2 S  
                                         6.207E+00 4.144E-01 0.000E+00 0.000E+00
                                         2.576E+00 2.374E-01 0.000E+00 0.000E+00
                                  3 S  
                                         4.941E-01 1.000E+00 0.000E+00 0.000E+00
                                  4 S  
                                         1.644E-01 1.000E+00 0.000E+00 0.000E+00
                           5-     7 P  
                                         3.470E+01 0.000E+00 5.333E-03 0.000E+00
                                         7.958E+00 0.000E+00 3.586E-02 0.000E+00
                                         2.378E+00 0.000E+00 1.422E-01 0.000E+00
                                         8.143E-01 0.000E+00 3.427E-01 0.000E+00
                           8-    10 P  
                                         5.662E-01 0.000E+00 1.000E+00 0.000E+00
                          11-    13 P  
                                         1.974E-01 0.000E+00 1.000E+00 0.000E+00
                          14-    18 D  
                                         5.792E-01 0.000E+00 0.000E+00 1.000E+00
   2 C    4.663  -2.692   4.924
   3 C    6.995   1.346   4.924
   4 C    9.327   5.385   4.924
   5 C    9.327  -2.692   4.924
   6 C   11.658   1.346   4.924
   7 C    2.332  -1.346   4.924
   8 C    4.663   2.692   4.924
   9 C    6.995   6.731   4.924
  10 C    4.663  -5.385   4.924
  11 C    6.995  -1.346   4.924
  12 C    9.327   2.692   4.924
  13 C    6.995  -9.423   4.924
  14 C    9.327  -5.385   4.924
  15 C   11.658  -1.346   4.924
 INFORMATION **** SET_MPP **** PCRYSTAL CALCULATION
 INFORMATION **** READM2 **** NEW DEFAULT: FOCK/KS MATRIX MIXING SET TO 30 %
 INFORMATION **** READM2 **** NEW DEFAULT: FULL DIRECT SCF MODE
 INFORMATION **** READM2 **** NEW DEFAULT: COULOMB BIPOLAR BUFFER SET TO 32 Mb
 INFORMATION **** READM2 **** NEW DEFAULT: EXCHANGE BIPOLAR BUFFER SET TO 32 Mb

 *******************************************************************************
 NEW DEFAULT: DFT INTEGRATION GRID INCREASED TO XLGRID
 NEW DEFAULT: DIIS ACCELERATOR ACTIVE
 USE KEYWORD NODIIS TO TURN IT OFF
 *******************************************************************************

 INFORMATION **** TOLINTEG **** COULOMB AND EXCHANGE SERIES TOLERANCES MODIFIED
 INFORMATION **** READM2 **** FULL DIRECT SCF (MONO AND BIEL INT) SELECTED
 INFORMATION **** MAXCYCLE **** MAX NUMBER OF SCF CYCLES SET TO         200
 INFORMATION **** TOLDEE **** SCF TOL ON TOTAL ENERGY SET TO           9
 *******************************************************************************
 N. OF ATOMS PER CELL        15  COULOMB OVERLAP TOL         (T1) 10**   -8
 NUMBER OF SHELLS           120  COULOMB PENETRATION TOL     (T2) 10**   -8
 NUMBER OF AO               270  EXCHANGE OVERLAP TOL        (T3) 10**   20
 N. OF ELECTRONS PER CELL    90  EXCHANGE PSEUDO OVP (F(G))  (T4) 10**   20
 CORE ELECTRONS PER CELL     30  EXCHANGE PSEUDO OVP (P(G))  (T5) 10**   20
 N. OF SYMMETRY OPERATORS     1  POLE ORDER IN MONO ZONE                  4
 *******************************************************************************
 TYPE OF CALCULATION :  RESTRICTED CLOSED SHELL
 KOHN-SHAM HAMILTONIAN

 (EXCHANGE)[CORRELATION] FUNCTIONAL:(PERDEW-BURKE-ERNZERHOF)[PERDEW-BURKE-ERNZERHOF]


 CAPPA:IS1  8;IS2  8;IS3  8; K PTS MONK NET 260; SYMMOPS:K SPACE   2;G SPACE   1

 *******************************************************************************
 MAX NUMBER OF SCF CYCLES     200  CONVERGENCE ON DELTAP        10**-19
 WEIGHT OF F(I) IN F(I+1)      30% CONVERGENCE ON ENERGY        10**- 9
 SHRINK. FACT.(MONKH.)    8  8  8  NUMBER OF K POINTS IN THE IBZ    260
 SHRINKING FACTOR(GILAT NET)   16  NUMBER OF K POINTS(GILAT NET)   2052
 *******************************************************************************
 *** K POINTS COORDINATES (OBLIQUE COORDINATES IN UNITS OF IS =  8)
   1-R(  0  0  0)   2-C(  1  0  0)   3-C(  2  0  0)   4-C(  3  0  0)
   5-R(  4  0  0)   6-C(  0  1  0)   7-C(  1  1  0)   8-C(  2  1  0)
   9-C(  3  1  0)  10-C(  4  1  0)  11-C(  5  1  0)  12-C(  6  1  0)
  13-C(  7  1  0)  14-C(  0  2  0)  15-C(  1  2  0)  16-C(  2  2  0)
  17-C(  3  2  0)  18-C(  4  2  0)  19-C(  5  2  0)  20-C(  6  2  0)
  21-C(  7  2  0)  22-C(  0  3  0)  23-C(  1  3  0)  24-C(  2  3  0)
  25-C(  3  3  0)  26-C(  4  3  0)  27-C(  5  3  0)  28-C(  6  3  0)
  29-C(  7  3  0)  30-R(  0  4  0)  31-C(  1  4  0)  32-C(  2  4  0)
  33-C(  3  4  0)  34-R(  4  4  0)  35-C(  0  0  1)  36-C(  1  0  1)
  37-C(  2  0  1)  38-C(  3  0  1)  39-C(  4  0  1)  40-C(  5  0  1)
  41-C(  6  0  1)  42-C(  7  0  1)  43-C(  0  1  1)  44-C(  1  1  1)
  45-C(  2  1  1)  46-C(  3  1  1)  47-C(  4  1  1)  48-C(  5  1  1)
  49-C(  6  1  1)  50-C(  7  1  1)  51-C(  0  2  1)  52-C(  1  2  1)
  53-C(  2  2  1)  54-C(  3  2  1)  55-C(  4  2  1)  56-C(  5  2  1)
  57-C(  6  2  1)  58-C(  7  2  1)  59-C(  0  3  1)  60-C(  1  3  1)
  61-C(  2  3  1)  62-C(  3  3  1)  63-C(  4  3  1)  64-C(  5  3  1)
  65-C(  6  3  1)  66-C(  7  3  1)  67-C(  0  4  1)  68-C(  1  4  1)
  69-C(  2  4  1)  70-C(  3  4  1)  71-C(  4  4  1)  72-C(  5  4  1)
  73-C(  6  4  1)  74-C(  7  4  1)  75-C(  0  5  1)  76-C(  1  5  1)
  77-C(  2  5  1)  78-C(  3  5  1)  79-C(  4  5  1)  80-C(  5  5  1)
  81-C(  6  5  1)  82-C(  7  5  1)  83-C(  0  6  1)  84-C(  1  6  1)
  85-C(  2  6  1)  86-C(  3  6  1)  87-C(  4  6  1)  88-C(  5  6  1)
  89-C(  6  6  1)  90-C(  7  6  1)  91-C(  0  7  1)  92-C(  1  7  1)
  93-C(  2  7  1)  94-C(  3  7  1)  95-C(  4  7  1)  96-C(  5  7  1)
  97-C(  6  7  1)  98-C(  7  7  1)  99-C(  0  0  2) 100-C(  1  0  2)
 101-C(  2  0  2) 102-C(  3  0  2) 103-C(  4  0  2) 104-C(  5  0  2)
 105-C(  6  0  2) 106-C(  7  0  2) 107-C(  0  1  2) 108-C(  1  1  2)
 109-C(  2  1  2) 110-C(  3  1  2) 111-C(  4  1  2) 112-C(  5  1  2)
 113-C(  6  1  2) 114-C(  7  1  2) 115-C(  0  2  2) 116-C(  1  2  2)
 117-C(  2  2  2) 118-C(  3  2  2) 119-C(  4  2  2) 120-C(  5  2  2)
 121-C(  6  2  2) 122-C(  7  2  2) 123-C(  0  3  2) 124-C(  1  3  2)
 125-C(  2  3  2) 126-C(  3  3  2) 127-C(  4  3  2) 128-C(  5  3  2)
 129-C(  6  3  2) 130-C(  7  3  2) 131-C(  0  4  2) 132-C(  1  4  2)
 133-C(  2  4  2) 134-C(  3  4  2) 135-C(  4  4  2) 136-C(  5  4  2)
 137-C(  6  4  2) 138-C(  7  4  2) 139-C(  0  5  2) 140-C(  1  5  2)
 141-C(  2  5  2) 142-C(  3  5  2) 143-C(  4  5  2) 144-C(  5  5  2)
 145-C(  6  5  2) 146-C(  7  5  2) 147-C(  0  6  2) 148-C(  1  6  2)
 149-C(  2  6  2) 150-C(  3  6  2) 151-C(  4  6  2) 152-C(  5  6  2)
 153-C(  6  6  2) 154-C(  7  6  2) 155-C(  0  7  2) 156-C(  1  7  2)
 157-C(  2  7  2) 158-C(  3  7  2) 159-C(  4  7  2) 160-C(  5  7  2)
 161-C(  6  7  2) 162-C(  7  7  2) 163-C(  0  0  3) 164-C(  1  0  3)
 165-C(  2  0  3) 166-C(  3  0  3) 167-C(  4  0  3) 168-C(  5  0  3)
 169-C(  6  0  3) 170-C(  7  0  3) 171-C(  0  1  3) 172-C(  1  1  3)
 173-C(  2  1  3) 174-C(  3  1  3) 175-C(  4  1  3) 176-C(  5  1  3)
 177-C(  6  1  3) 178-C(  7  1  3) 179-C(  0  2  3) 180-C(  1  2  3)
 181-C(  2  2  3) 182-C(  3  2  3) 183-C(  4  2  3) 184-C(  5  2  3)
 185-C(  6  2  3) 186-C(  7  2  3) 187-C(  0  3  3) 188-C(  1  3  3)
 189-C(  2  3  3) 190-C(  3  3  3) 191-C(  4  3  3) 192-C(  5  3  3)
 193-C(  6  3  3) 194-C(  7  3  3) 195-C(  0  4  3) 196-C(  1  4  3)
 197-C(  2  4  3) 198-C(  3  4  3) 199-C(  4  4  3) 200-C(  5  4  3)
 201-C(  6  4  3) 202-C(  7  4  3) 203-C(  0  5  3) 204-C(  1  5  3)
 205-C(  2  5  3) 206-C(  3  5  3) 207-C(  4  5  3) 208-C(  5  5  3)
 209-C(  6  5  3) 210-C(  7  5  3) 211-C(  0  6  3) 212-C(  1  6  3)
 213-C(  2  6  3) 214-C(  3  6  3) 215-C(  4  6  3) 216-C(  5  6  3)
 217-C(  6  6  3) 218-C(  7  6  3) 219-C(  0  7  3) 220-C(  1  7  3)
 221-C(  2  7  3) 222-C(  3  7  3) 223-C(  4  7  3) 224-C(  5  7  3)
 225-C(  6  7  3) 226-C(  7  7  3) 227-R(  0  0  4) 228-C(  1  0  4)
 229-C(  2  0  4) 230-C(  3  0  4) 231-R(  4  0  4) 232-C(  0  1  4)
 233-C(  1  1  4) 234-C(  2  1  4) 235-C(  3  1  4) 236-C(  4  1  4)
 237-C(  5  1  4) 238-C(  6  1  4) 239-C(  7  1  4) 240-C(  0  2  4)
 241-C(  1  2  4) 242-C(  2  2  4) 243-C(  3  2  4) 244-C(  4  2  4)
 245-C(  5  2  4) 246-C(  6  2  4) 247-C(  7  2  4) 248-C(  0  3  4)
 249-C(  1  3  4) 250-C(  2  3  4) 251-C(  3  3  4) 252-C(  4  3  4)
 253-C(  5  3  4) 254-C(  6  3  4) 255-C(  7  3  4) 256-R(  0  4  4)
 257-C(  1  4  4) 258-C(  2  4  4) 259-C(  3  4  4) 260-R(  4  4  4)

 DIRECT LATTICE VECTORS COMPON. (A.U.)     RECIP. LATTICE VECTORS COMPON. (A.U.) 
        X            Y            Z              X            Y            Z
    6.9949842  -12.1156680    0.0000000      0.4491208   -0.2593000    0.0000000
    6.9949842   12.1156680    0.0000000      0.4491208    0.2593000   -0.0000000
    0.0000000    0.0000000   16.4123433     -0.0000000    0.0000000    0.3828329

 DISK SPACE FOR EIGENVECTORS (FTN 10)    37324800 REALS

 SYMMETRY ADAPTION OF THE BLOCH FUNCTIONS DISABLED
 TTTTTTTTTTTTTTTTTTTTTTTTTTTTTT gordsh1     TELAPSE        2.41 TCPU        1.00

 MATRIX SIZE: P(G)  110466, F(G)   55413, P(G) IRR   55698, F(G) IRR   55698
 MAX G-VECTOR INDEX FOR 1- AND 2-ELECTRON INTEGRALS  27

 TTTTTTTTTTTTTTTTTTTTTTTTTTTTTT INPUT       TELAPSE        2.42 TCPU        1.01

 NEIGHBORS OF THE NON-EQUIVALENT ATOMS

 N = NUMBER OF NEIGHBORS AT DISTANCE R
    ATOM  N     R/ANG      R/AU   NEIGHBORS (ATOM LABELS AND CELL INDICES)
   1 C    3     1.4247     2.6924    7 C    0 1 0    9 C    0 0 0   15 C   -1 0 0
   1 C    4     2.4677     4.6633    2 C    0 1 0    4 C    0 0 0    5 C   -1 0 0
                                     6 C   -1 0 0
   1 C    3     2.8495     5.3847   10 C    0 1 0   13 C   -1 1 0   14 C   -1 0 0
   1 C    6     3.7695     7.1233    8 C    0 0 0    8 C    0 1 0   11 C   -1 0 0
                                    11 C    0 1 0   12 C    0 0 0   12 C   -1 0 0
   1 C    3     4.2742     8.0771    3 C    0 0 0    3 C   -1 0 0    3 C    0 1 0
   1 C    4     4.9354     9.3266    2 C   -1 0 0    4 C   -1 0 0    5 C    0 1 0
                                     6 C    0 0 0

   2 C    3     1.4247     2.6924    7 C    0 0 0   10 C    0 0 0   11 C    0 0 0
   2 C    4     2.4677     4.6633    1 C    0-1 0    3 C    0 0 0    4 C    0-1 0
                                     5 C    0 0 0
   2 C    3     2.8495     5.3847    8 C    0 0 0    9 C    0-1 0   14 C    0 0 0
   2 C    6     3.7695     7.1233   12 C    0 0 0   12 C    0-1 0   13 C    0 0 0
                                    13 C   -1 0 0   15 C    0 0 0   15 C   -1-1 0
   2 C    3     4.2742     8.0771    6 C    0 0 0    6 C   -1-1 0    6 C    0-1 0
   2 C    4     4.9354     9.3266    1 C    1 0 0    3 C    0-1 0    4 C    0 0 0
                                     5 C   -1-1 0

   3 C    3     1.4247     2.6924    8 C    0 0 0   11 C    0 0 0   12 C    0 0 0
   3 C    4     2.4677     4.6633    2 C    0 0 0    4 C    0 0 0    5 C    0 0 0
                                     6 C    0 0 0
   3 C    3     2.8495     5.3847    7 C    0 0 0    9 C    0 0 0   15 C    0 0 0
   3 C    6     3.7695     7.1233   10 C    0 0 0   10 C    0 1 0   13 C   -1 0 0
                                    13 C    0 1 0   14 C    0 0 0   14 C   -1 0 0
   3 C    3     4.2742     8.0771    1 C    0 0 0    1 C    1 0 0    1 C    0-1 0
   3 C    4     4.9354     9.3266    2 C    0 1 0    4 C    0-1 0    5 C   -1 0 0
                                     6 C   -1-1 0

   4 C    3     1.4247     2.6924    9 C    0 0 0   10 C    0 1 0   12 C    0 0 0
   4 C    4     2.4677     4.6633    1 C    0 0 0    2 C    0 1 0    3 C    0 0 0
                                     6 C    0 0 0
   4 C    3     2.8495     5.3847    7 C    0 1 0    8 C    0 0 0   13 C    0 1 0
   4 C    6     3.7695     7.1233   11 C    0 0 0   11 C    0 1 0   14 C   -1 0 0
                                    14 C    0 1 0   15 C    0 0 0   15 C   -1 0 0
   4 C    3     4.2742     8.0771    5 C    0 0 0    5 C   -1 0 0    5 C    0 1 0
   4 C    4     4.9354     9.3266    1 C    1 0 0    2 C    0 0 0    3 C    0 1 0
                                     6 C   -1 0 0

   5 C    3     1.4247     2.6924   11 C    0 0 0   14 C    0 0 0   15 C    0 0 0
   5 C    4     2.4677     4.6633    1 C    1 0 0    2 C    0 0 0    3 C    0 0 0
                                     6 C    0 0 0
   5 C    3     2.8495     5.3847    9 C    1 0 0   10 C    0 0 0   12 C    0 0 0
   5 C    6     3.7695     7.1233    7 C    0 0 0    7 C    1 1 0    8 C    0 0 0
                                     8 C    1 0 0   13 C    0 0 0   13 C    0 1 0
   5 C    3     4.2742     8.0771    4 C    0 0 0    4 C    1 0 0    4 C    0-1 0
   5 C    4     4.9354     9.3266    1 C    0-1 0    2 C    1 1 0    3 C    1 0 0
                                     6 C    0-1 0

   6 C    3     1.4247     2.6924   12 C    0 0 0   13 C    0 1 0   15 C    0 0 0
   6 C    4     2.4677     4.6633    1 C    1 0 0    3 C    0 0 0    4 C    0 0 0
                                     5 C    0 0 0
   6 C    3     2.8495     5.3847    7 C    1 1 0   10 C    0 1 0   11 C    0 0 0
   6 C    6     3.7695     7.1233    8 C    0 0 0    8 C    1 1 0    9 C    0 0 0
                                     9 C    1 0 0   14 C    0 0 0   14 C    0 1 0
   6 C    3     4.2742     8.0771    2 C    0 0 0    2 C    1 1 0    2 C    0 1 0
   6 C    4     4.9354     9.3266    1 C    0 0 0    3 C    1 1 0    4 C    1 0 0
                                     5 C    0 1 0

   7 C    2     1.4247     2.6924    1 C    0-1 0    2 C    0 0 0
   7 C    6     2.4677     4.6633    8 C    0 0 0    9 C    0-1 0   10 C    0 0 0
                                    11 C    0 0 0   13 C   -1 0 0   15 C   -1-1 0
   7 C    3     2.8495     5.3847    3 C    0 0 0    4 C    0-1 0    6 C   -1-1 0
   7 C    2     3.7695     7.1233    5 C    0 0 0    5 C   -1-1 0
   7 C    6     4.2742     8.0771   12 C    0 0 0   12 C   -1-1 0   12 C    0-1 0
                                    14 C    0 0 0   14 C   -1-1 0   14 C   -1 0 0
   7 C    6     4.9354     9.3266    8 C    0-1 0    9 C    0 0 0   10 C   -1 0 0
                                    11 C   -1-1 0   13 C    0 0 0   15 C    0 0 0

   8 C    1     1.4247     2.6924    3 C    0 0 0
   8 C    6     2.4677     4.6633    7 C    0 0 0    9 C    0 0 0   11 C    0 0 0
                                    12 C    0 0 0   13 C   -1 0 0   14 C   -1 0 0
   8 C    2     2.8495     5.3847    2 C    0 0 0    4 C    0 0 0
   8 C    6     3.7695     7.1233    1 C    0 0 0    1 C    0-1 0    5 C    0 0 0
                                     5 C   -1 0 0    6 C    0 0 0    6 C   -1-1 0
   8 C    6     4.2742     8.0771   10 C    0 0 0   10 C   -1 0 0   10 C    0 1 0
                                    15 C    0 0 0   15 C   -1-1 0   15 C   -1 0 0
   8 C    6     4.9354     9.3266    7 C    0 1 0    9 C    0-1 0   11 C   -1 0 0
                                    12 C   -1-1 0   13 C    0 1 0   14 C    0 0 0

   9 C    2     1.4247     2.6924    1 C    0 0 0    4 C    0 0 0
   9 C    6     2.4677     4.6633    7 C    0 1 0    8 C    0 0 0   10 C    0 1 0
                                    12 C    0 0 0   14 C   -1 0 0   15 C   -1 0 0
   9 C    3     2.8495     5.3847    2 C    0 1 0    3 C    0 0 0    5 C   -1 0 0
   9 C    2     3.7695     7.1233    6 C    0 0 0    6 C   -1 0 0
   9 C    6     4.2742     8.0771   11 C    0 0 0   11 C   -1 0 0   11 C    0 1 0
                                    13 C   -1 0 0   13 C    0 1 0   13 C   -1 1 0
   9 C    6     4.9354     9.3266    7 C    0 0 0    8 C    0 1 0   10 C   -1 0 0
                                    12 C   -1 0 0   14 C    0 1 0   15 C    0 0 0

  10 C    2     1.4247     2.6924    2 C    0 0 0    4 C    0-1 0
  10 C    6     2.4677     4.6633    7 C    0 0 0    9 C    0-1 0   11 C    0 0 0
                                    12 C    0-1 0   13 C    0 0 0   14 C    0 0 0
  10 C    3     2.8495     5.3847    1 C    0-1 0    5 C    0 0 0    6 C    0-1 0
  10 C    2     3.7695     7.1233    3 C    0 0 0    3 C    0-1 0
  10 C    6     4.2742     8.0771    8 C    0 0 0    8 C    1 0 0    8 C    0-1 0
                                    15 C    0 0 0   15 C   -1-1 0   15 C    0-1 0
  10 C    6     4.9354     9.3266    7 C    1 0 0    9 C    1 0 0   11 C    0-1 0
                                    12 C    0 0 0   13 C   -1 0 0   14 C   -1-1 0

  11 C    3     1.4247     2.6924    2 C    0 0 0    3 C    0 0 0    5 C    0 0 0
  11 C    6     2.4677     4.6633    7 C    0 0 0    8 C    0 0 0   10 C    0 0 0
                                    12 C    0 0 0   14 C    0 0 0   15 C    0 0 0
  11 C    1     2.8495     5.3847    6 C    0 0 0
  11 C    4     3.7695     7.1233    1 C    1 0 0    1 C    0-1 0    4 C    0 0 0
                                     4 C    0-1 0
  11 C    6     4.2742     8.0771    9 C    0 0 0    9 C    1 0 0    9 C    0-1 0
                                    13 C    0 0 0   13 C   -1 0 0   13 C    0 1 0
  11 C    6     4.9354     9.3266    7 C    1 1 0    8 C    1 0 0   10 C    0 1 0
                                    12 C    0-1 0   14 C   -1 0 0   15 C   -1-1 0

  12 C    3     1.4247     2.6924    3 C    0 0 0    4 C    0 0 0    6 C    0 0 0
  12 C    6     2.4677     4.6633    8 C    0 0 0    9 C    0 0 0   10 C    0 1 0
                                    11 C    0 0 0   13 C    0 1 0   15 C    0 0 0
  12 C    1     2.8495     5.3847    5 C    0 0 0
  12 C    4     3.7695     7.1233    1 C    0 0 0    1 C    1 0 0    2 C    0 0 0
                                     2 C    0 1 0
  12 C    6     4.2742     8.0771    7 C    0 0 0    7 C    1 1 0    7 C    0 1 0
                                    14 C    0 0 0   14 C   -1 0 0   14 C    0 1 0
  12 C    6     4.9354     9.3266    8 C    1 1 0    9 C    1 0 0   10 C    0 0 0
                                    11 C    0 1 0   13 C   -1 0 0   15 C   -1 0 0

  13 C    1     1.4247     2.6924    6 C    0-1 0
  13 C    6     2.4677     4.6633    7 C    1 0 0    8 C    1 0 0   10 C    0 0 0
                                    12 C    0-1 0   14 C    0 0 0   15 C    0-1 0
  13 C    2     2.8495     5.3847    1 C    1-1 0    4 C    0-1 0
  13 C    6     3.7695     7.1233    2 C    0 0 0    2 C    1 0 0    3 C    1 0 0
                                     3 C    0-1 0    5 C    0 0 0    5 C    0-1 0
  13 C    6     4.2742     8.0771    9 C    1 0 0    9 C    0-1 0    9 C    1-1 0
                                    11 C    0 0 0   11 C    1 0 0   11 C    0-1 0
  13 C    6     4.9354     9.3266    7 C    0 0 0    8 C    0-1 0   10 C    1 0 0
                                    12 C    1 0 0   14 C    0-1 0   15 C    0 0 0

  14 C    1     1.4247     2.6924    5 C    0 0 0
  14 C    6     2.4677     4.6633    8 C    1 0 0    9 C    1 0 0   10 C    0 0 0
                                    11 C    0 0 0   13 C    0 0 0   15 C    0 0 0
  14 C    2     2.8495     5.3847    1 C    1 0 0    2 C    0 0 0
  14 C    6     3.7695     7.1233    3 C    0 0 0    3 C    1 0 0    4 C    1 0 0
                                     4 C    0-1 0    6 C    0 0 0    6 C    0-1 0
  14 C    6     4.2742     8.0771    7 C    0 0 0    7 C    1 1 0    7 C    1 0 0
                                    12 C    0 0 0   12 C    1 0 0   12 C    0-1 0
  14 C    6     4.9354     9.3266    8 C    0 0 0    9 C    0-1 0   10 C    1 1 0
                                    11 C    1 0 0   13 C    0 1 0   15 C    0-1 0

  15 C    3     1.4247     2.6924    1 C    1 0 0    5 C    0 0 0    6 C    0 0 0
  15 C    6     2.4677     4.6633    7 C    1 1 0    9 C    1 0 0   11 C    0 0 0
                                    12 C    0 0 0   13 C    0 1 0   14 C    0 0 0
  15 C    1     2.8495     5.3847    3 C    0 0 0
  15 C    4     3.7695     7.1233    2 C    0 0 0    2 C    1 1 0    4 C    0 0 0
                                     4 C    1 0 0
  15 C    6     4.2742     8.0771    8 C    0 0 0    8 C    1 1 0    8 C    1 0 0
                                    10 C    0 0 0   10 C    1 1 0   10 C    0 1 0
  15 C    6     4.9354     9.3266    7 C    0 0 0    9 C    0 0 0   11 C    1 1 0
                                    12 C    1 0 0   13 C    0 0 0   14 C    0 1 0


 SYMMETRY ALLOWED INTERNAL DEGREE(S) OF FREEDOM:  42
 TTTTTTTTTTTTTTTTTTTTTTTTTTTTTT SYMM        TELAPSE        2.42 TCPU        1.01
 TTTTTTTTTTTTTTTTTTTTTTTTTTTTTT INT_SCREEN  TELAPSE        2.42 TCPU        1.02

 *******************************************************************************
 *                             OPTIMIZATION STARTS                             *
 *******************************************************************************
 RECLASIFICATION OF INDICES FOR INTEGRAL CALC ACCORDING TO DIFFERENT CRITERIA:
           FIXDELTE                  FIXDELTX              FIXDELTN
          0.10000000               0.80000000                 42
 DEFAULT MAX NUM OF POINTS  100
 *******************************************************************************

 *******************************************************************************
 COORDINATE OPTIMIZATION - POINT    1
 INFORMATION **** EXCBUF **** EXCH. BIPO BUFFER: WORDS USED =           0

 DFT PARAMETERS

     ATOM       ELECTRONS   NET CHARGE   R(ANGSTROM)
   1   6  C       6.0000      0.0000     0.77000000

 SIZE OF GRID=     503710
 TTTTTTTTTTTTTTTTTTTTTTTTTTTTTT MAKE_GRID2  TELAPSE        2.85 TCPU        1.45
 BECKE WEIGHT FUNCTION
 RADSAFE =     2.00
 TOLERANCES - DENSITY:10**- 6; POTENTIAL:10**- 9; GRID WGT:10**-14

 RADIAL INTEGRATION  - INTERVALS (POINTS,UPPER LIMIT):            1( 75,  4.0*R)

 ANGULAR INTEGRATION - INTERVALS (ACCURACY LEVEL [N. POINTS] UPPER LIMIT):
  1(  4[  86]   0.2)  2(  8[ 194]   0.5)  3( 12[ 350]   0.9)  4( 16[ 974]   3.5)
  5( 12[ 350]9999.0)
 TTTTTTTTTTTTTTTTTTTTTTTTTTTTTT INT_CALC    TELAPSE        2.88 TCPU        1.47

 *******************************************************************************
 Final                                                                           
 CRYSTAL - SCF - TYPE OF CALCULATION :  RESTRICTED CLOSED SHELL
 *******************************************************************************

 CAPPA:IS1  8;IS2  8;IS3  8; K PTS MONK NET 260; SYMMOPS:K SPACE   2;G SPACE   1

 TTTTTTTTTTTTTTTTTTTTTTTTTTTTTT SDIK        TELAPSE        2.94 TCPU        1.53

 AAAAAAAAAAAAAAAAAAAAAAAAAAAAAAAAAAAAAAAAAAAAAAAAAAAAAAAAAAAAAAAAAAAAAAAAAAAAAAA
         ATOMIC WAVEFUNCTION(S)


 NUCLEAR CHARGE  6.0  SYMMETRY SPECIES            S    P
 N. ELECTRONS    6.0  NUMBER OF PRIMITIVE GTOS   10    6
                      NUMBER OF CONTRACTED GTOS   4    3
                      NUMBER OF CLOSED SHELLS     2    0
                      OPEN SHELL OCCUPATION       0    2

  ZNUC SCFIT  TOTAL HF ENERGY   KINETIC ENERGY   VIRIAL THEOREM ACCURACY
   6.0  10   -3.768111494E+01  3.771190961E+01 -1.999183423E+00  3.4E-06

 AAAAAAAAAAAAAAAAAAAAAAAAAAAAAAAAAAAAAAAAAAAAAAAAAAAAAAAAAAAAAAAAAAAAAAAAAAAAAAA

 CHARGE NORMALIZATION FACTOR   1.00000000
 TOTAL ATOMIC CHARGES:
   6.0000000   6.0000000   6.0000000   6.0000000   6.0000000   6.0000000
   6.0000000   6.0000000   6.0000000   6.0000000   6.0000000   6.0000000
   6.0000000   6.0000000   6.0000000
 TTTTTTTTTTTTTTTTTTTTTTTTTTTTTT MOQGAD      TELAPSE        2.95 TCPU        1.54
 TTTTTTTTTTTTTTTTTTTTTTTTTTTTTT SHELLXN     TELAPSE        3.53 TCPU        2.12
 TTTTTTTTTTTTTTTTTTTTTTTTTTTTTT MONMO3      TELAPSE        3.67 TCPU        2.26
 NUMERICALLY INTEGRATED DENSITY     89.9998078972
 TTTTTTTTTTTTTTTTTTTTTTTTTTTTTT NUMDFT      TELAPSE        3.82 TCPU        2.41
 CYC   0 ETOT(AU) -5.736496227961E+02 DETOT -5.74E+02 tst  0.00E+00 PX  1.00E+00
 TTTTTTTTTTTTTTTTTTTTTTTTTTTTTT DIIS        TELAPSE        3.83 TCPU        2.42
 TTTTTTTTTTTTTTTTTTTTTTTTTTTTTT FDIK        TELAPSE        3.99 TCPU        2.58
 INSULATING STATE
 TOP OF VALENCE BANDS -    BAND     45; K   19; EIG -2.3556958E-01 AU
 TOP OF VALENCE BANDS -    BAND     45; K    1; EIG -2.3766756E-01 AU
 BOTTOM OF VIRTUAL BANDS - BAND     46; K   11; EIG -2.3476402E-01 AU
 INDIRECT ENERGY BAND GAP:   0.0219 eV
 BOTTOM OF VIRTUAL BANDS - BAND     46; K    1; EIG -2.3263681E-01 AU
 TTTTTTTTTTTTTTTTTTTTTTTTTTTTTT PDIG        TELAPSE        4.04 TCPU        2.62
 CHARGE NORMALIZATION FACTOR   1.00000000
 TOTAL ATOMIC CHARGES:
   6.1178973   6.1178966   6.1288414   6.1178922   6.1288379   6.1288395
   6.0494183   5.7938937   6.0494314   6.0494320   5.9099349   5.9099392
   5.7938929   5.7939158   5.9099368
 TTTTTTTTTTTTTTTTTTTTTTTTTTTTTT MOQGAD      TELAPSE        4.04 TCPU        2.62
 TTTTTTTTTTTTTTTTTTTTTTTTTTTTTT SHELLXN     TELAPSE        4.71 TCPU        3.29
 TTTTTTTTTTTTTTTTTTTTTTTTTTTTTT MONMO3      TELAPSE        4.88 TCPU        3.46
 NUMERICALLY INTEGRATED DENSITY     89.9998559250
 TTTTTTTTTTTTTTTTTTTTTTTTTTTTTT NUMDFT      TELAPSE        5.13 TCPU        3.72
 CYC   1 ETOT(AU) -5.702601706378E+02 DETOT  3.39E+00 tst  0.00E+00 PX  1.00E+00
 TTTTTTTTTTTTTTTTTTTTTTTTTTTTTT DIIS        TELAPSE        5.15 TCPU        3.73
 DIIS TEST: 0.66595E+00 AT SCF   CYCLE   1 - MIX   30 %
 TTTTTTTTTTTTTTTTTTTTTTTTTTTTTT FDIK        TELAPSE        5.33 TCPU        3.91
 POSSIBLY CONDUCTING STATE - EFERMI(AU) -1.8165435E-01 (RES. CHARGE  3.69E-13;IT. 12)
 TTTTTTTTTTTTTTTTTTTTTTTTTTTTTT PDIG        TELAPSE        5.42 TCPU        4.00
 CHARGE NORMALIZATION FACTOR   1.00000000
 TOTAL ATOMIC CHARGES:
   5.7857768   5.7857760   5.8322959   5.7859533   5.8319713   5.8322939
   5.7688948   6.5685751   5.7706706   5.7706731   6.0433248   6.0419918
   6.5685777   6.5698979   6.0433269
 TTTTTTTTTTTTTTTTTTTTTTTTTTTTTT MOQGAD      TELAPSE        5.42 TCPU        4.00
 TTTTTTTTTTTTTTTTTTTTTTTTTTTTTT SHELLXN     TELAPSE        6.06 TCPU        4.63
 TTTTTTTTTTTTTTTTTTTTTTTTTTTTTT MONMO3      TELAPSE        6.66 TCPU        5.24
 NUMERICALLY INTEGRATED DENSITY     89.9998130268
 TTTTTTTTTTTTTTTTTTTTTTTTTTTTTT NUMDFT      TELAPSE        6.92 TCPU        5.49
 CYC   2 ETOT(AU) -5.700620224851E+02 DETOT  1.98E-01 tst  3.89E-03 PX  1.75E-01
 TTTTTTTTTTTTTTTTTTTTTTTTTTTTTT DIIS        TELAPSE        6.93 TCPU        5.51
 DIIS TEST: 0.24374E+01 AT SCF   CYCLE   2 - DIIS ACTIVE - HISTORY:     2 CYCLES
 TTTTTTTTTTTTTTTTTTTTTTTTTTTTTT FDIK        TELAPSE        7.11 TCPU        5.68
 POSSIBLY CONDUCTING STATE - EFERMI(AU) -1.3674002E-01 (RES. CHARGE  2.93E-10;IT. 16)
 TTTTTTTTTTTTTTTTTTTTTTTTTTTTTT PDIG        TELAPSE        7.21 TCPU        5.78
 CHARGE NORMALIZATION FACTOR   1.00000000
 TOTAL ATOMIC CHARGES:
   5.9603031   5.9603022   5.8010405   5.9601866   5.8020887   5.8010376
   6.6536784   5.2905840   6.6462157   6.6462152   6.2973846   6.3005624
   5.2905746   5.2924409   6.2973855
 TTTTTTTTTTTTTTTTTTTTTTTTTTTTTT MOQGAD      TELAPSE        7.21 TCPU        5.78
 TTTTTTTTTTTTTTTTTTTTTTTTTTTTTT SHELLXN     TELAPSE        7.88 TCPU        6.46
 TTTTTTTTTTTTTTTTTTTTTTTTTTTTTT MONMO3      TELAPSE        8.05 TCPU        6.63
 NUMERICALLY INTEGRATED DENSITY     89.9998024524
 TTTTTTTTTTTTTTTTTTTTTTTTTTTTTT NUMDFT      TELAPSE        8.31 TCPU        6.88
 CYC   3 ETOT(AU) -5.696894341134E+02 DETOT  3.73E-01 tst  1.13E-01 PX  2.65E-01
 TTTTTTTTTTTTTTTTTTTTTTTTTTTTTT DIIS        TELAPSE        8.32 TCPU        6.90
 DIIS TEST: 0.42869E+01 AT SCF   CYCLE   3 - DIIS ACTIVE - HISTORY:     3 CYCLES
 TTTTTTTTTTTTTTTTTTTTTTTTTTTTTT FDIK        TELAPSE        8.86 TCPU        7.44
 POSSIBLY CONDUCTING STATE - EFERMI(AU) -1.7199551E-01 (RES. CHARGE  2.28E-11;IT. 18)
 TTTTTTTTTTTTTTTTTTTTTTTTTTTTTT PDIG        TELAPSE        8.95 TCPU        7.52
 CHARGE NORMALIZATION FACTOR   1.00000000
 TOTAL ATOMIC CHARGES:
   6.0318414   6.0318404   6.0176536   6.0320831   6.0168490   6.0176525
   6.0096769   6.0430776   6.0163734   6.0163744   5.8956871   5.8959562
   6.0430872   6.0361565   5.8956907
 TTTTTTTTTTTTTTTTTTTTTTTTTTTTTT MOQGAD      TELAPSE        8.95 TCPU        7.52
 TTTTTTTTTTTTTTTTTTTTTTTTTTTTTT SHELLXN     TELAPSE        9.62 TCPU        8.19
 TTTTTTTTTTTTTTTTTTTTTTTTTTTTTT MONMO3      TELAPSE        9.79 TCPU        8.36
 NUMERICALLY INTEGRATED DENSITY     89.9998157449
 TTTTTTTTTTTTTTTTTTTTTTTTTTTTTT NUMDFT      TELAPSE       10.05 TCPU        8.62
 CYC   4 ETOT(AU) -5.703770246682E+02 DETOT -6.88E-01 tst  2.77E-02 PX  2.38E-01
 TTTTTTTTTTTTTTTTTTTTTTTTTTTTTT DIIS        TELAPSE       10.06 TCPU        8.63
 DIIS TEST: 0.67715E-01 AT SCF   CYCLE   4 - DIIS ACTIVE - HISTORY:     4 CYCLES
 TTTTTTTTTTTTTTTTTTTTTTTTTTTTTT FDIK        TELAPSE       10.24 TCPU        8.81
 POSSIBLY CONDUCTING STATE - EFERMI(AU) -1.7986405E-01 (RES. CHARGE  1.55E-10;IT. 10)
 TTTTTTTTTTTTTTTTTTTTTTTTTTTTTT PDIG        TELAPSE       10.33 TCPU        8.89
 CHARGE NORMALIZATION FACTOR   1.00000000
 TOTAL ATOMIC CHARGES:
   5.9758910   5.9758901   5.9766459   5.9749258   5.9817052   5.9766377
   5.9985280   5.9993595   5.9806293   5.9806302   6.0474293   6.0432305
   5.9993010   6.0417694   6.0474269
 TTTTTTTTTTTTTTTTTTTTTTTTTTTTTT MOQGAD      TELAPSE       10.33 TCPU        8.90
 TTTTTTTTTTTTTTTTTTTTTTTTTTTTTT SHELLXN     TELAPSE       11.00 TCPU        9.56
 TTTTTTTTTTTTTTTTTTTTTTTTTTTTTT MONMO3      TELAPSE       11.16 TCPU        9.73
 NUMERICALLY INTEGRATED DENSITY     89.9998200370
 TTTTTTTTTTTTTTTTTTTTTTTTTTTTTT NUMDFT      TELAPSE       11.42 TCPU        9.99
 CYC   5 ETOT(AU) -5.703794977318E+02 DETOT -2.47E-03 tst  2.34E-04 PX  2.58E-02
 TTTTTTTTTTTTTTTTTTTTTTTTTTTTTT DIIS        TELAPSE       11.43 TCPU       10.00
 DIIS TEST: 0.50574E-01 AT SCF   CYCLE   5 - DIIS ACTIVE - HISTORY:     5 CYCLES
 TTTTTTTTTTTTTTTTTTTTTTTTTTTTTT FDIK        TELAPSE       11.61 TCPU       10.17
 POSSIBLY CONDUCTING STATE - EFERMI(AU) -1.8395741E-01 (RES. CHARGE  4.40E-12;IT. 10)
 TTTTTTTTTTTTTTTTTTTTTTTTTTTTTT PDIG        TELAPSE       11.70 TCPU       10.26
 CHARGE NORMALIZATION FACTOR   1.00000000
 TOTAL ATOMIC CHARGES:
   5.9766593   5.9766642   5.9532961   5.9773231   5.9371840   5.9533518
   6.0593207   6.0599682   6.0756463   6.0756111   5.9942488   6.0074409
   6.0604239   5.8985904   5.9942714
 TTTTTTTTTTTTTTTTTTTTTTTTTTTTTT MOQGAD      TELAPSE       11.70 TCPU       10.26
 TTTTTTTTTTTTTTTTTTTTTTTTTTTTTT SHELLXN     TELAPSE       12.37 TCPU       10.93
 TTTTTTTTTTTTTTTTTTTTTTTTTTTTTT MONMO3      TELAPSE       12.53 TCPU       11.10
 NUMERICALLY INTEGRATED DENSITY     89.9998199663
 TTTTTTTTTTTTTTTTTTTTTTTTTTTTTT NUMDFT      TELAPSE       12.79 TCPU       11.35
 CYC   6 ETOT(AU) -5.703808944582E+02 DETOT -1.40E-03 tst  2.53E-04 PX  5.74E-02
 TTTTTTTTTTTTTTTTTTTTTTTTTTTTTT DIIS        TELAPSE       12.81 TCPU       11.37
 DIIS TEST: 0.29406E-01 AT SCF   CYCLE   6 - DIIS ACTIVE - HISTORY:     6 CYCLES
 TTTTTTTTTTTTTTTTTTTTTTTTTTTTTT FDIK        TELAPSE       12.99 TCPU       11.55
 POSSIBLY CONDUCTING STATE - EFERMI(AU) -1.8301774E-01 (RES. CHARGE  3.55E-14;IT. 12)
 TTTTTTTTTTTTTTTTTTTTTTTTTTTTTT PDIG        TELAPSE       13.07 TCPU       11.63
 CHARGE NORMALIZATION FACTOR   1.00000000
 TOTAL ATOMIC CHARGES:
   5.9794826   5.9794739   5.9486043   5.9822913   5.9686678   5.9485205
   6.0488229   5.9248347   6.0744731   6.0744629   6.0034684   5.9914452
   5.9239987   6.1480290   6.0034247
 TTTTTTTTTTTTTTTTTTTTTTTTTTTTTT MOQGAD      TELAPSE       13.07 TCPU       11.63
 TTTTTTTTTTTTTTTTTTTTTTTTTTTTTT SHELLXN     TELAPSE       13.74 TCPU       12.30
 TTTTTTTTTTTTTTTTTTTTTTTTTTTTTT MONMO3      TELAPSE       13.91 TCPU       12.47
 NUMERICALLY INTEGRATED DENSITY     89.9998204419
 TTTTTTTTTTTTTTTTTTTTTTTTTTTTTT NUMDFT      TELAPSE       14.17 TCPU       12.72
 CYC   7 ETOT(AU) -5.703777531136E+02 DETOT  3.14E-03 tst  3.51E-04 PX  6.94E-02
 TTTTTTTTTTTTTTTTTTTTTTTTTTTTTT DIIS        TELAPSE       14.19 TCPU       12.74
 DIIS TEST: 0.62106E-01 AT SCF   CYCLE   7 - DIIS ACTIVE - HISTORY:     7 CYCLES
 TTTTTTTTTTTTTTTTTTTTTTTTTTTTTT FDIK        TELAPSE       14.84 TCPU       13.39
 POSSIBLY CONDUCTING STATE - EFERMI(AU) -1.8139539E-01 (RES. CHARGE  1.47E-12;IT. 14)
 TTTTTTTTTTTTTTTTTTTTTTTTTTTTTT PDIG        TELAPSE       14.93 TCPU       13.48
 CHARGE NORMALIZATION FACTOR   1.00000000
 TOTAL ATOMIC CHARGES:
   5.9834964   5.9834915   5.9591950   5.9826792   5.9679313   5.9591580
   6.0657000   5.9652984   6.0562452   6.0562973   6.0036426   5.9958096
   5.9649991   6.0524273   6.0036291
 TTTTTTTTTTTTTTTTTTTTTTTTTTTTTT MOQGAD      TELAPSE       14.93 TCPU       13.48
 TTTTTTTTTTTTTTTTTTTTTTTTTTTTTT SHELLXN     TELAPSE       15.60 TCPU       14.15
 TTTTTTTTTTTTTTTTTTTTTTTTTTTTTT MONMO3      TELAPSE       15.76 TCPU       14.32
 NUMERICALLY INTEGRATED DENSITY     89.9998202280
 TTTTTTTTTTTTTTTTTTTTTTTTTTTTTT NUMDFT      TELAPSE       16.02 TCPU       14.57
 CYC   8 ETOT(AU) -5.703842138001E+02 DETOT -6.46E-03 tst  6.32E-05 PX  1.79E-02
 TTTTTTTTTTTTTTTTTTTTTTTTTTTTTT DIIS        TELAPSE       16.04 TCPU       14.59
 DIIS TEST: 0.92452E-02 AT SCF   CYCLE   8 - DIIS ACTIVE - HISTORY:     8 CYCLES
 TTTTTTTTTTTTTTTTTTTTTTTTTTTTTT FDIK        TELAPSE       16.21 TCPU       14.77
 POSSIBLY CONDUCTING STATE - EFERMI(AU) -1.8016840E-01 (RES. CHARGE  5.33E-13;IT. 16)
 TTTTTTTTTTTTTTTTTTTTTTTTTTTTTT PDIG        TELAPSE       16.30 TCPU       14.86
 CHARGE NORMALIZATION FACTOR   1.00000000
 TOTAL ATOMIC CHARGES:
   5.9835922   5.9835795   5.9665623   5.9924335   5.9658235   5.9665404
   5.9938174   5.9806747   6.0797242   6.0794911   5.9997528   6.0132023
   5.9803779   6.0146734   5.9997550
 TTTTTTTTTTTTTTTTTTTTTTTTTTTTTT MOQGAD      TELAPSE       16.31 TCPU       14.86
 TTTTTTTTTTTTTTTTTTTTTTTTTTTTTT SHELLXN     TELAPSE       16.98 TCPU       15.53
 TTTTTTTTTTTTTTTTTTTTTTTTTTTTTT MONMO3      TELAPSE       17.14 TCPU       15.69
 NUMERICALLY INTEGRATED DENSITY     89.9998200927
 TTTTTTTTTTTTTTTTTTTTTTTTTTTTTT NUMDFT      TELAPSE       17.40 TCPU       15.95
 CYC   9 ETOT(AU) -5.703839472362E+02 DETOT  2.67E-04 tst  2.38E-05 PX  1.77E-02
 TTTTTTTTTTTTTTTTTTTTTTTTTTTTTT DIIS        TELAPSE       17.42 TCPU       15.97
 DIIS TEST: 0.12570E-01 AT SCF   CYCLE   9 - DIIS ACTIVE - HISTORY:     9 CYCLES
 TTTTTTTTTTTTTTTTTTTTTTTTTTTTTT FDIK        TELAPSE       17.60 TCPU       16.14
 POSSIBLY CONDUCTING STATE - EFERMI(AU) -1.7973387E-01 (RES. CHARGE  3.13E-13;IT. 16)
 TTTTTTTTTTTTTTTTTTTTTTTTTTTTTT PDIG        TELAPSE       17.69 TCPU       16.23
 CHARGE NORMALIZATION FACTOR   1.00000000
 TOTAL ATOMIC CHARGES:
   5.9882463   5.9882662   5.9672755   5.9881937   5.9669026   5.9673003
   6.0474159   5.9916902   6.0492991   6.0493209   6.0045154   6.0032172
   5.9919299   5.9919233   6.0045034
 TTTTTTTTTTTTTTTTTTTTTTTTTTTTTT MOQGAD      TELAPSE       17.69 TCPU       16.23
 TTTTTTTTTTTTTTTTTTTTTTTTTTTTTT SHELLXN     TELAPSE       18.36 TCPU       16.90
 TTTTTTTTTTTTTTTTTTTTTTTTTTTTTT MONMO3      TELAPSE       18.52 TCPU       17.07
 NUMERICALLY INTEGRATED DENSITY     89.9998199151
 TTTTTTTTTTTTTTTTTTTTTTTTTTTTTT NUMDFT      TELAPSE       18.78 TCPU       17.33
 CYC  10 ETOT(AU) -5.703853746419E+02 DETOT -1.43E-03 tst  2.83E-05 PX  9.42E-03
 TTTTTTTTTTTTTTTTTTTTTTTTTTTTTT DIIS        TELAPSE       18.80 TCPU       17.35
 DIIS TEST: 0.61220E-04 AT SCF   CYCLE  10 - DIIS ACTIVE - HISTORY:    10 CYCLES
 TTTTTTTTTTTTTTTTTTTTTTTTTTTTTT FDIK        TELAPSE       18.99 TCPU       17.53
 POSSIBLY CONDUCTING STATE - EFERMI(AU) -1.7970509E-01 (RES. CHARGE  8.09E-12;IT. 10)
 TTTTTTTTTTTTTTTTTTTTTTTTTTTTTT PDIG        TELAPSE       19.07 TCPU       17.62
 CHARGE NORMALIZATION FACTOR   1.00000000
 TOTAL ATOMIC CHARGES:
   5.9870329   5.9869973   5.9685988   5.9874320   5.9684238   5.9684752
   6.0513714   5.9906909   6.0510699   6.0509217   6.0027908   6.0042628
   5.9893768   5.9897928   6.0027629
 TTTTTTTTTTTTTTTTTTTTTTTTTTTTTT MOQGAD      TELAPSE       19.07 TCPU       17.62
 TTTTTTTTTTTTTTTTTTTTTTTTTTTTTT SHELLXN     TELAPSE       19.74 TCPU       18.28
 TTTTTTTTTTTTTTTTTTTTTTTTTTTTTT MONMO3      TELAPSE       19.91 TCPU       18.45
 NUMERICALLY INTEGRATED DENSITY     89.9998199243
 TTTTTTTTTTTTTTTTTTTTTTTTTTTTTT NUMDFT      TELAPSE       20.17 TCPU       18.71
 CYC  11 ETOT(AU) -5.703853820654E+02 DETOT -7.42E-06 tst  2.01E-07 PX  7.72E-04
 TTTTTTTTTTTTTTTTTTTTTTTTTTTTTT DIIS        TELAPSE       20.18 TCPU       18.73
 DIIS TEST: 0.11439E-04 AT SCF   CYCLE  11 - DIIS ACTIVE - HISTORY:    11 CYCLES
 TTTTTTTTTTTTTTTTTTTTTTTTTTTTTT FDIK        TELAPSE       20.37 TCPU       18.91
 POSSIBLY CONDUCTING STATE - EFERMI(AU) -1.7965015E-01 (RES. CHARGE  1.16E-10;IT. 14)
 TTTTTTTTTTTTTTTTTTTTTTTTTTTTTT PDIG        TELAPSE       20.45 TCPU       18.99
 CHARGE NORMALIZATION FACTOR   1.00000000
 TOTAL ATOMIC CHARGES:
   5.9874032   5.9874992   5.9682398   5.9874200   5.9684631   5.9687774
   6.0510784   5.9871974   6.0509167   6.0515062   6.0033271   6.0033373
   5.9928799   5.9883886   6.0035658
 TTTTTTTTTTTTTTTTTTTTTTTTTTTTTT MOQGAD      TELAPSE       20.45 TCPU       18.99
 TTTTTTTTTTTTTTTTTTTTTTTTTTTTTT SHELLXN     TELAPSE       21.12 TCPU       19.66
 TTTTTTTTTTTTTTTTTTTTTTTTTTTTTT MONMO3      TELAPSE       21.29 TCPU       19.83
 NUMERICALLY INTEGRATED DENSITY     89.9998199222
 TTTTTTTTTTTTTTTTTTTTTTTTTTTTTT NUMDFT      TELAPSE       21.55 TCPU       20.09
 CYC  12 ETOT(AU) -5.703853796589E+02 DETOT  2.41E-06 tst  8.31E-08 PX  1.20E-03
 TTTTTTTTTTTTTTTTTTTTTTTTTTTTTT DIIS        TELAPSE       21.57 TCPU       20.11
 DIIS TEST: 0.31940E-04 AT SCF   CYCLE  12 - DIIS ACTIVE - HISTORY:    12 CYCLES
 TTTTTTTTTTTTTTTTTTTTTTTTTTTTTT FDIK        TELAPSE       21.75 TCPU       20.28
 POSSIBLY CONDUCTING STATE - EFERMI(AU) -1.7963048E-01 (RES. CHARGE  1.73E-12;IT. 10)
 TTTTTTTTTTTTTTTTTTTTTTTTTTTTTT PDIG        TELAPSE       21.84 TCPU       20.37
 CHARGE NORMALIZATION FACTOR   1.00000000
 TOTAL ATOMIC CHARGES:
   5.9875890   5.9875745   5.9685397   5.9874951   5.9684316   5.9684039
   6.0510769   5.9905783   6.0512286   6.0511366   6.0036361   6.0032498
   5.9892295   5.9882741   6.0035563
 TTTTTTTTTTTTTTTTTTTTTTTTTTTTTT MOQGAD      TELAPSE       21.84 TCPU       20.37
 TTTTTTTTTTTTTTTTTTTTTTTTTTTTTT SHELLXN     TELAPSE       22.51 TCPU       21.04
 TTTTTTTTTTTTTTTTTTTTTTTTTTTTTT MONMO3      TELAPSE       22.67 TCPU       21.21
 NUMERICALLY INTEGRATED DENSITY     89.9998199222
 TTTTTTTTTTTTTTTTTTTTTTTTTTTTTT NUMDFT      TELAPSE       22.93 TCPU       21.46
 CYC  13 ETOT(AU) -5.703853830003E+02 DETOT -3.34E-06 tst  7.52E-08 PX  9.96E-04
 TTTTTTTTTTTTTTTTTTTTTTTTTTTTTT DIIS        TELAPSE       22.95 TCPU       21.48
 DIIS TEST: 0.50954E-05 AT SCF   CYCLE  13 - DIIS ACTIVE - HISTORY:    13 CYCLES
 TTTTTTTTTTTTTTTTTTTTTTTTTTTTTT FDIK        TELAPSE       23.13 TCPU       21.66
 POSSIBLY CONDUCTING STATE - EFERMI(AU) -1.7960266E-01 (RES. CHARGE  6.15E-12;IT. 10)
 TTTTTTTTTTTTTTTTTTTTTTTTTTTTTT PDIG        TELAPSE       23.22 TCPU       21.75
 CHARGE NORMALIZATION FACTOR   1.00000000
 TOTAL ATOMIC CHARGES:
   5.9876540   5.9876449   5.9683644   5.9877892   5.9683209   5.9683811
   6.0514373   5.9891582   6.0509126   6.0508253   6.0035252   6.0038502
   5.9892932   5.9892850   6.0035584
 TTTTTTTTTTTTTTTTTTTTTTTTTTTTTT MOQGAD      TELAPSE       23.22 TCPU       21.75
 TTTTTTTTTTTTTTTTTTTTTTTTTTTTTT SHELLXN     TELAPSE       23.89 TCPU       22.42
 TTTTTTTTTTTTTTTTTTTTTTTTTTTTTT MONMO3      TELAPSE       24.06 TCPU       22.59
 NUMERICALLY INTEGRATED DENSITY     89.9998199234
 TTTTTTTTTTTTTTTTTTTTTTTTTTTTTT NUMDFT      TELAPSE       24.32 TCPU       22.85
 CYC  14 ETOT(AU) -5.703853834717E+02 DETOT -4.71E-07 tst  1.42E-08 PX  4.03E-04
 TTTTTTTTTTTTTTTTTTTTTTTTTTTTTT DIIS        TELAPSE       24.35 TCPU       22.88
 DIIS TEST: 0.37745E-06 AT SCF   CYCLE  14 - DIIS ACTIVE - HISTORY:    14 CYCLES
 TTTTTTTTTTTTTTTTTTTTTTTTTTTTTT FDIK        TELAPSE       24.56 TCPU       23.08
 POSSIBLY CONDUCTING STATE - EFERMI(AU) -1.7959594E-01 (RES. CHARGE  2.14E-11;IT.  8)
 TTTTTTTTTTTTTTTTTTTTTTTTTTTTTT PDIG        TELAPSE       24.64 TCPU       23.16
 CHARGE NORMALIZATION FACTOR   1.00000000
 TOTAL ATOMIC CHARGES:
   5.9875299   5.9875539   5.9683796   5.9876019   5.9683873   5.9683541
   6.0514651   5.9892366   6.0509149   6.0511783   6.0036748   6.0037608
   5.9891282   5.9892148   6.0036199
 TTTTTTTTTTTTTTTTTTTTTTTTTTTTTT MOQGAD      TELAPSE       24.64 TCPU       23.16
 TTTTTTTTTTTTTTTTTTTTTTTTTTTTTT SHELLXN     TELAPSE       25.31 TCPU       23.83
 TTTTTTTTTTTTTTTTTTTTTTTTTTTTTT MONMO3      TELAPSE       25.48 TCPU       24.00
 NUMERICALLY INTEGRATED DENSITY     89.9998199221
 TTTTTTTTTTTTTTTTTTTTTTTTTTTTTT NUMDFT      TELAPSE       25.73 TCPU       24.25
 CYC  15 ETOT(AU) -5.703853835358E+02 DETOT -6.41E-08 tst  1.06E-09 PX  6.99E-05
 TTTTTTTTTTTTTTTTTTTTTTTTTTTTTT DIIS        TELAPSE       25.78 TCPU       24.30
 DIIS TEST: 0.11953E-06 AT SCF   CYCLE  15 - DIIS ACTIVE - HISTORY:    15 CYCLES
 TTTTTTTTTTTTTTTTTTTTTTTTTTTTTT FDIK        TELAPSE       25.99 TCPU       24.47
 POSSIBLY CONDUCTING STATE - EFERMI(AU) -1.7959363E-01 (RES. CHARGE  2.63E-13;IT.  8)
 TTTTTTTTTTTTTTTTTTTTTTTTTTTTTT PDIG        TELAPSE       26.07 TCPU       24.56
 CHARGE NORMALIZATION FACTOR   1.00000000
 TOTAL ATOMIC CHARGES:
   5.9875496   5.9875350   5.9683622   5.9876045   5.9683863   5.9683723
   6.0514609   5.9891414   6.0511306   6.0509918   6.0036407   6.0037598
   5.9891987   5.9891929   6.0036733
 TTTTTTTTTTTTTTTTTTTTTTTTTTTTTT MOQGAD      TELAPSE       26.07 TCPU       24.56
 TTTTTTTTTTTTTTTTTTTTTTTTTTTTTT SHELLXN     TELAPSE       26.74 TCPU       25.22
 TTTTTTTTTTTTTTTTTTTTTTTTTTTTTT MONMO3      TELAPSE       26.91 TCPU       25.39
 NUMERICALLY INTEGRATED DENSITY     89.9998199220
 TTTTTTTTTTTTTTTTTTTTTTTTTTTTTT NUMDFT      TELAPSE       27.26 TCPU       25.75
 CYC  16 ETOT(AU) -5.703853835483E+02 DETOT -1.25E-08 tst  3.56E-10 PX  5.73E-05
 TTTTTTTTTTTTTTTTTTTTTTTTTTTTTT DIIS        TELAPSE       27.30 TCPU       25.78
 DIIS TEST: 0.51091E-07 AT SCF   CYCLE  16 - DIIS ACTIVE - HISTORY:    16 CYCLES
 TTTTTTTTTTTTTTTTTTTTTTTTTTTTTT FDIK        TELAPSE       27.46 TCPU       25.94
 POSSIBLY CONDUCTING STATE - EFERMI(AU) -1.7958618E-01 (RES. CHARGE  3.69E-11;IT.  8)
 TTTTTTTTTTTTTTTTTTTTTTTTTTTTTT PDIG        TELAPSE       27.55 TCPU       26.03
 CHARGE NORMALIZATION FACTOR   1.00000000
 TOTAL ATOMIC CHARGES:
   5.9875557   5.9875554   5.9683686   5.9876350   5.9683763   5.9683663
   6.0514503   5.9891196   6.0510824   6.0510853   6.0036747   6.0037823
   5.9891185   5.9891537   6.0036759
 TTTTTTTTTTTTTTTTTTTTTTTTTTTTTT MOQGAD      TELAPSE       27.55 TCPU       26.03
 TTTTTTTTTTTTTTTTTTTTTTTTTTTTTT SHELLXN     TELAPSE       28.23 TCPU       26.70
 TTTTTTTTTTTTTTTTTTTTTTTTTTTTTT MONMO3      TELAPSE       28.39 TCPU       26.87
 NUMERICALLY INTEGRATED DENSITY     89.9998199215
 TTTTTTTTTTTTTTTTTTTTTTTTTTTTTT NUMDFT      TELAPSE       28.65 TCPU       27.13
 CYC  17 ETOT(AU) -5.703853835620E+02 DETOT -1.37E-08 tst  1.14E-10 PX  2.68E-05
 TTTTTTTTTTTTTTTTTTTTTTTTTTTTTT DIIS        TELAPSE       28.68 TCPU       27.15
 DIIS TEST: 0.15578E-08 AT SCF   CYCLE  17 - DIIS ACTIVE - HISTORY:    17 CYCLES
 TTTTTTTTTTTTTTTTTTTTTTTTTTTTTT FDIK        TELAPSE       28.85 TCPU       27.33
 POSSIBLY CONDUCTING STATE - EFERMI(AU) -1.7958410E-01 (RES. CHARGE  1.85E-13;IT.  8)
 TTTTTTTTTTTTTTTTTTTTTTTTTTTTTT PDIG        TELAPSE       28.94 TCPU       27.42
 CHARGE NORMALIZATION FACTOR   1.00000000
 TOTAL ATOMIC CHARGES:
   5.9875617   5.9875604   5.9683667   5.9876289   5.9683826   5.9683645
   6.0514485   5.9891005   6.0510813   6.0510829   6.0036798   6.0037958
   5.9890996   5.9891641   6.0036827
 TTTTTTTTTTTTTTTTTTTTTTTTTTTTTT MOQGAD      TELAPSE       28.94 TCPU       27.42
 TTTTTTTTTTTTTTTTTTTTTTTTTTTTTT SHELLXN     TELAPSE       29.61 TCPU       28.09
 TTTTTTTTTTTTTTTTTTTTTTTTTTTTTT MONMO3      TELAPSE       29.78 TCPU       28.25
 NUMERICALLY INTEGRATED DENSITY     89.9998199215
 TTTTTTTTTTTTTTTTTTTTTTTTTTTTTT NUMDFT      TELAPSE       30.04 TCPU       28.51
 CYC  18 ETOT(AU) -5.703853835629E+02 DETOT -9.44E-10 tst  3.99E-12 PX  1.53E-05
 TTTTTTTTTTTTTTTTTTTTTTTTTTTTTT DIIS        TELAPSE       30.07 TCPU       28.54
 DIIS TEST: 0.21187E-09 AT SCF   CYCLE  18 - DIIS ACTIVE - HISTORY:    18 CYCLES
 TTTTTTTTTTTTTTTTTTTTTTTTTTTTTT FDIK        TELAPSE       30.25 TCPU       28.72
 POSSIBLY CONDUCTING STATE - EFERMI(AU) -1.7958420E-01 (RES. CHARGE  7.11E-15;IT.  6)
 TTTTTTTTTTTTTTTTTTTTTTTTTTTTTT PDIG        TELAPSE       30.34 TCPU       28.81
 CHARGE NORMALIZATION FACTOR   1.00000000
 TOTAL ATOMIC CHARGES:
   5.9875589   5.9875584   5.9683675   5.9876326   5.9683799   5.9683653
   6.0514513   5.9891016   6.0510827   6.0510832   6.0036820   6.0037918
   5.9891019   5.9891597   6.0036832
 TTTTTTTTTTTTTTTTTTTTTTTTTTTTTT MOQGAD      TELAPSE       30.34 TCPU       28.81
 TTTTTTTTTTTTTTTTTTTTTTTTTTTTTT SHELLXN     TELAPSE       31.01 TCPU       29.48
 +++ ENERGIES IN A.U. +++
 ::: EXT EL-POLE                                  -8.0469477720635E+02
 ::: EXT EL-SPHEROPOLE                             6.1755312532952E+00
 ::: BIELET ZONE E-E                               1.1978367768412E+03
 ::: TOTAL E-E                                     3.9931753088811E+02
 ::: TOTAL E-N + N-E                              -1.5780184015298E+03
 ::: TOTAL N-N                                     1.2094442477960E+02
 ::: KINETIC ENERGY                                5.6755751064959E+02
 ::: PSEUDO TOTAL   ENERGY                        -4.9019893521249E+02
 ::: VIRIAL COEFFICIENT                            1.0731345819160E+00
 TTTTTTTTTTTTTTTTTTTTTTTTTTTTTT MONMO3      TELAPSE       31.17 TCPU       29.64
 NUMERICALLY INTEGRATED DENSITY     89.9998199215
 TTTTTTTTTTTTTTTTTTTTTTTTTTTTTT NUMDFT      TELAPSE       31.54 TCPU       30.01
 CYC  19 ETOT(AU) -5.703853835628E+02 DETOT  9.57E-11 tst  1.39E-13 PX  1.53E-05

 == SCF ENDED - CONVERGENCE ON ENERGY      E(AU) -5.7038538356284E+02 CYCLES  19


 ENERGY EXPRESSION=HARTREE+FOCK EXCH*0.00000+(PBE        EXCH)*1.00000+PBE        CORR


 TOTAL ENERGY(DFT)(AU)( 19) -5.7038538356284E+02 DE 9.6E-11 tester 1.4E-13
 TTTTTTTTTTTTTTTTTTTTTTTTTTTTTT EDFT        TELAPSE       31.56 TCPU       30.03

 *******************************************************************************
 *                             FORCE CALCULATION                               *
 *******************************************************************************

 TTTTTTTTTTTTTTTTTTTTTTTTTTTTTT NUMDFG      TELAPSE       32.18 TCPU       30.65
 INFORMATION **** EXCPOG **** EXCH. BIPO BUFFER LENGTH (WORDS) =           0
 INFORMATION **** GENPOG **** BIPO BUFFER LENGTH (WORDS) =     1105500
 TTTTTTTTTTTTTTTTTTTTTTTTTTTTTT SHELXG      TELAPSE       34.39 TCPU       32.86

 CARTESIAN FORCES IN HARTREE/BOHR (ANALYTICAL)
   ATOM                     X                   Y                   Z
   1   6             2.770613511496E-03 -1.577462523442E-03 -9.194791636690E-09
   2   6            -2.770597796843E-03 -1.577459142823E-03 -7.037742859067E-09
   3   6            -1.520583089990E-02  8.680300291366E-03 -3.847738586153E-09
   4   6             1.262848435546E-08  3.109244585463E-03  4.656227228225E-09
   5   6             1.240252345269E-08 -1.760898900669E-02  7.836855860735E-09
   6   6             1.520585025903E-02  8.680332691172E-03  1.337540901707E-08
   7   6             2.246182218002E-08 -1.782416988124E-02 -3.838007603989E-10
   8   6            -7.662812843385E-04  4.169544088386E-04  5.535620357504E-09
   9   6             1.545025821093E-02  9.028557742955E-03  6.773853408331E-09
  10   6            -1.545025547770E-02  9.028551913531E-03  6.109010385601E-09
  11   6            -1.853712043425E-03 -1.056617184157E-03 -1.317483702169E-08
  12   6             1.967101104228E-08  2.129355517727E-03 -5.150345014948E-09
  13   6             7.661720317644E-04  4.169662563318E-04 -4.075703317106E-09
  14   6            -4.855768734324E-08 -7.889274596273E-04  5.355822701967E-09
  15   6             1.853764882900E-03 -1.056638209502E-03 -6.777970459622E-09

 RESULTANT FORCE     8.191364253562E-14 -9.337669526488E-14 -1.306962350828E-13

 SYMMETRY ALLOWED FORCES (ANALYTICAL) (DIRECTION, FORCE)

    1  2.8480000E-03    2  1.6672230E-03    3 -9.5175045E-09    4  1.8404631E-04
    5 -3.1890945E-03    6 -7.9849645E-09    7 -1.5518927E-02    8 -9.3152761E-03
    9 -5.3044857E-09   10 -3.8906502E-03   11  7.1804124E-04   12  3.1155187E-09
   13  1.4556276E-02   14 -1.0078159E-02   15  6.7487512E-09   16  1.0799165E-04
   17  1.6594833E-02   18  1.3299173E-08   19  1.6402571E-02   20 -9.4699928E-03
   21  2.7508138E-10   22  1.3011607E-03   23 -1.6971309E-03   24  6.6400403E-09
   25  2.2049660E-03   26  1.7860303E-02   27  9.0047027E-09   28 -1.4315952E-02
   29 -8.1822088E-03   30  9.9262089E-09   31 -1.6776686E-04   32 -2.4941027E-03
   33 -9.4029234E-09   34 -2.3323063E-03   35  4.7328121E-04   36 -2.8732367E-09
   37 -1.0129455E-03   38  4.3332802E-04   39 -2.7472084E-09   40 -8.1936071E-04
   41 -1.0405742E-03   42  8.5798874E-09
 TTTTTTTTTTTTTTTTTTTTTTTTTTTTTT TOTGRA      TELAPSE       35.10 TCPU       33.57
 INFORMATION **** opta001 **** GEOMETRY OUTPUT FILE
 CLASSICAL MODEL (SCHLEGEL) USED AS INITIAL HESSIAN MATRIX
 REFERENCE GEOMETRY DEFINED

 MAX GRADIENT      0.017860  THRESHOLD              0.000450 CONVERGED NO
 RMS GRADIENT      0.006774  THRESHOLD              0.000300 CONVERGED NO

 GRADIENT NORM     0.043899  GRADIENT THRESHOLD     0.500000

 EIGENVALUES OF THE ESTIMATED HESSIAN
  0.6939E-03  0.7105E-03  0.2249E-02  0.3132E-02  0.7102E-02  0.8128E-02
  0.1442E-01  0.2023E-01  0.2117E-01  0.2919E-01  0.4162E-01  0.5035E-01
  0.5461E-01  0.5462E-01  0.5858E-01  0.7047E-01  0.8022E-01  0.8024E-01
  0.1092      0.1534      0.1727      0.1730      0.1873      0.3682    
  0.3862      0.3879      0.3881      0.4985      0.5003      0.5003    
  0.7945      0.7946      0.9570       1.032       1.086       1.086    
   1.175       1.175       1.181       1.203       1.444       1.444    

 INITIAL TRUST RADIUS    0.5000000000E+00

 PREDICTED ENERGY CHANGE    -0.256E-02

 INITIAL DISPLACEMENTS
  0.015198  0.009214 -0.000001  0.000665 -0.017084 -0.000001 -0.037871 -0.023521
 -0.000001 -0.017623  0.006336  0.000000  0.036087 -0.024972  0.000001  0.000288
  0.041243 -0.000001  0.041174 -0.023779 -0.000001 -0.037059 -0.028244  0.000001
 -0.000484  0.042281 -0.000001 -0.043864 -0.024837  0.000001 -0.009054 -0.024497
 -0.000001 -0.028955 -0.001696 -0.000001 -0.021875  0.043491 -0.000004  0.017545
 -0.022382  0.000004
 TTTTTTTTTTTTTTTTTTTTTTTTTTTTTT OPTI        TELAPSE       35.12 TCPU       33.58

 OPTOPTOPTOPTOPTOPTOPTOPTOPTOPTOPTOPTOPTOPTOPTOPTOPTOPTOPTOPTOPTOPTOPTOPTOPTOPT

 - INFORMATION ON SCF MOVED TO SCFOUT.LOG
 GEOMETRY OPTIMIZATION INFORMATION STORED IN OPTINFO.DAT

 OPTOPTOPTOPTOPTOPTOPTOPTOPTOPTOPTOPTOPTOPTOPTOPTOPTOPTOPTOPTOPTOPTOPTOPTOPTOPT
 *******************************************************************************
 COORDINATE OPTIMIZATION - POINT    2
 *******************************************************************************
 LATTICE PARAMETERS (ANGSTROMS AND DEGREES) - BOHR = 0.5291772083 ANGSTROM
 PRIMITIVE CELL - CENTRING CODE 1/0 VOLUME=   412.228566 - DENSITY  0.725 g/cm^3
         A              B              C           ALPHA      BETA       GAMMA 
     7.40317242     7.40317242     8.68503800    90.000000  90.000000 120.000000
 *******************************************************************************
 ATOMS IN THE ASYMMETRIC UNIT   15 - ATOMS IN THE UNIT CELL:   15
     ATOM                 X/A                 Y/B                 Z/C    
 *******************************************************************************
      1 T   6 C     1.125279851372E-01 -1.103764321689E-01  2.999999644198E-01
      2 T   6 C     4.437096488679E-01  2.208109662456E-01  2.999999646417E-01
      3 T   6 C     4.408585664616E-01 -4.462575980545E-01  2.999999551641E-01
      4 T   6 C     4.437306777332E-01 -1.104029748059E-01  3.000000160878E-01
      5 T   6 C    -2.204165429125E-01 -4.462477250673E-01  3.000000590362E-01
      6 T   6 C    -2.204068439393E-01 -1.075232436196E-01  2.999999590459E-01
      7 T   6 C     2.240714034310E-01  1.092603738600E-01  2.999999562215E-01
      8 T   6 C     2.184224624405E-01  4.424947662637E-01  3.000000591805E-01
      9 T   6 C     2.240838285399E-01 -2.184487981167E-01  2.999999788524E-01
     10 T   6 C    -4.482280687683E-01  1.092437355105E-01  3.000000559442E-01
     11 T   6 C    -4.451537196451E-01  4.430142344102E-01  2.999999482993E-01
     12 T   6 C    -4.451528710190E-01 -2.215130756214E-01  2.999999699062E-01
     13 T   6 C    -1.091600825737E-01  1.149128385408E-01  2.999998569798E-01
     14 T   6 C    -1.092095691632E-01  4.425435418969E-01  3.000002845879E-01
     15 T   6 C    -1.096768745893E-01 -2.215106092726E-01  2.999999716329E-01

 T = ATOM BELONGING TO THE ASYMMETRIC UNIT

 TOTAL ENERGY(DFT)(AU)( 17) -5.7038825765736E+02     DE (AU)   -2.874E-03

 UPDATED TRUST RADIUS     0.100E+01

 SYMMETRY ALLOWED FORCES  (COORDINATE, FORCE)

    1 -4.9625626E-03    2 -2.8967260E-03    3  4.2873579E-09    4 -3.2062977E-04
    5  5.5291487E-03    6  5.0593434E-09    7 -3.1019538E-03    8 -1.3598627E-03
    9 -3.2689537E-08   10  4.5081800E-03   11 -2.8594169E-03   12  2.9178202E-08
   13  2.5631459E-03   14 -1.7696551E-03   15 -1.9281244E-07   16  2.9840692E-05
   17  2.8500520E-03   18  5.7638427E-08   19  4.1922075E-03   20 -2.4153761E-03
   21 -6.1389673E-08   22 -1.0684476E-03   23 -1.3392746E-03   24  2.8751512E-09
   25  3.2694485E-04   26  4.5225860E-03   27  1.0217491E-08   28 -4.0051115E-03
   29 -2.2432202E-03   30 -7.5718848E-08   31 -3.1949004E-04   32  6.3700294E-03
   33  3.4053081E-08   34  5.3906479E-03   35 -1.9348272E-03   36 -1.1900635E-08
   37  1.5318656E-03   38  3.0148814E-03   39 -1.9975297E-07   40  4.6518872E-03
   41  1.4910267E-03   42  1.0927119E-07

 GRADIENT NORM     0.017270  GRADIENT THRESHOLD     0.500000

 EIGENVALUES OF THE ESTIMATED HESSIAN
  0.6939E-03  0.7105E-03  0.2249E-02  0.3132E-02  0.7102E-02  0.8128E-02
  0.1442E-01  0.2023E-01  0.2117E-01  0.2919E-01  0.4162E-01  0.5035E-01
  0.5461E-01  0.5462E-01  0.5858E-01  0.7047E-01  0.8022E-01  0.8024E-01
  0.1092      0.1302      0.1727      0.1730      0.1873      0.3576    
  0.3862      0.3879      0.3881      0.5003      0.5003      0.5391    
  0.7945      0.7946      0.9356       1.032       1.086       1.086    
   1.175       1.175       1.176       1.203       1.444       1.444    

 PREDICTED ENERGY CHANGE    -0.400E-03

 MAX GRADIENT      0.006370  THRESHOLD              0.000450 CONVERGED NO
 RMS GRADIENT      0.002665  THRESHOLD              0.000300 CONVERGED NO
 MAX DISPLAC.      0.022708  THRESHOLD              0.001800 CONVERGED NO
 RMS DISPLAC.      0.008711  THRESHOLD              0.001200 CONVERGED NO
 TTTTTTTTTTTTTTTTTTTTTTTTTTTTTT OPTI        TELAPSE       64.98 TCPU       63.31
 *******************************************************************************
 COORDINATE OPTIMIZATION - POINT    3
 *******************************************************************************
 LATTICE PARAMETERS (ANGSTROMS AND DEGREES) - BOHR = 0.5291772083 ANGSTROM
 PRIMITIVE CELL - CENTRING CODE 1/0 VOLUME=   412.228566 - DENSITY  0.725 g/cm^3
         A              B              C           ALPHA      BETA       GAMMA 
     7.40317242     7.40317242     8.68503800    90.000000  90.000000 120.000000
 *******************************************************************************
 ATOMS IN THE ASYMMETRIC UNIT   15 - ATOMS IN THE UNIT CELL:   15
     ATOM                 X/A                 Y/B                 Z/C    
 *******************************************************************************
      1 T   6 C     1.116742007496E-01 -1.107724689159E-01  2.999998922571E-01
      2 T   6 C     4.441031134888E-01  2.216636670634E-01  3.000002862197E-01
      3 T   6 C     4.397151403617E-01 -4.468435597095E-01  3.000001830165E-01
      4 T   6 C     4.441479923281E-01 -1.108232907802E-01  2.999992708625E-01
      5 T   6 C    -2.198390268359E-01 -4.468238010835E-01  3.000030594567E-01
      6 T   6 C    -2.198196186248E-01 -1.063800030636E-01  2.999966746861E-01
      7 T   6 C     2.246920501765E-01  1.086366128445E-01  2.999997998932E-01
      8 T   6 C     2.167434229242E-01  4.415465501171E-01  3.000010533654E-01
      9 T   6 C     2.247296803862E-01 -2.170980972306E-01  2.999999970583E-01
     10 T   6 C    -4.495875090375E-01  1.085924670281E-01  2.999992858338E-01
     11 T   6 C    -4.447430453039E-01  4.438243919209E-01  3.000011157760E-01
     12 T   6 C    -4.447541102828E-01 -2.219103776942E-01  2.999988074803E-01
     13 T   6 C    -1.082036167796E-01  1.165905209167E-01  2.999897058399E-01
     14 T   6 C    -1.083705780086E-01  4.417190623849E-01  3.000109824436E-01
     15 T   6 C    -1.104880955412E-01 -2.219216737972E-01  2.999998858108E-01

 T = ATOM BELONGING TO THE ASYMMETRIC UNIT

 TOTAL ENERGY(DFT)(AU)( 24) -5.7038875943803E+02     DE (AU)   -5.018E-04

 UPDATED TRUST RADIUS     0.200E+01

 SYMMETRY ALLOWED FORCES  (COORDINATE, FORCE)

    1 -1.6678034E-03    2 -1.0061590E-03    3  1.4651787E-07    4 -8.1353655E-05
    5  1.8702587E-03    6 -1.1766885E-06    7  3.2629379E-04    8  3.5771439E-04
    9 -3.4907724E-07   10  1.8338259E-03   11 -1.0118952E-03   12  8.5775377E-07
   13 -2.8705587E-04   14  2.1211145E-04   15 -5.7209155E-06   16  1.4515130E-05
   17 -4.9810762E-04   18  5.2743949E-06   19  1.2576649E-03   20 -7.3740219E-04
   21 -1.5850591E-06   22 -8.6040253E-04   23 -9.6031756E-04   24  2.2961960E-07
   25 -1.1600554E-04   26  1.4819821E-03   27  1.3308532E-06   28 -1.5707967E-03
   29 -7.3303491E-04   30  3.3707298E-07   31 -2.4492156E-04   32  2.3592528E-03
   33  3.9459670E-07   34  1.8723778E-03   35 -8.2755120E-04   36 -4.8187332E-07
   37  5.6634259E-04   38  1.7045355E-03   39 -8.1637445E-06   40  2.0678593E-03
   41  4.2142316E-04   42  4.8025178E-06

 GRADIENT NORM     0.006229  GRADIENT THRESHOLD     0.500000

 EIGENVALUES OF THE ESTIMATED HESSIAN
  0.6939E-03  0.7105E-03  0.2249E-02  0.3132E-02  0.7102E-02  0.8128E-02
  0.1442E-01  0.2023E-01  0.2117E-01  0.2919E-01  0.4162E-01  0.5035E-01
  0.5433E-01  0.5462E-01  0.5858E-01  0.7047E-01  0.8022E-01  0.8024E-01
  0.1092      0.1148      0.1727      0.1730      0.1873      0.3184    
  0.3862      0.3879      0.3881      0.4563      0.5003      0.5003    
  0.7945      0.7946      0.9626       1.032       1.086       1.086    
   1.175       1.175       1.180       1.203       1.444       1.444    

 PREDICTED ENERGY CHANGE    -0.706E-04

 MAX GRADIENT      0.002359  THRESHOLD              0.000450 CONVERGED NO
 RMS GRADIENT      0.000961  THRESHOLD              0.000300 CONVERGED NO
 MAX DISPLAC.      0.011129  THRESHOLD              0.001800 CONVERGED NO
 RMS DISPLAC.      0.004770  THRESHOLD              0.001200 CONVERGED NO
 TTTTTTTTTTTTTTTTTTTTTTTTTTTTTT OPTI        TELAPSE      104.86 TCPU      103.01
 *******************************************************************************
 COORDINATE OPTIMIZATION - POINT    4
 *******************************************************************************
 LATTICE PARAMETERS (ANGSTROMS AND DEGREES) - BOHR = 0.5291772083 ANGSTROM
 PRIMITIVE CELL - CENTRING CODE 1/0 VOLUME=   412.228566 - DENSITY  0.725 g/cm^3
         A              B              C           ALPHA      BETA       GAMMA 
     7.40317242     7.40317242     8.68503800    90.000000  90.000000 120.000000
 *******************************************************************************
 ATOMS IN THE ASYMMETRIC UNIT   15 - ATOMS IN THE UNIT CELL:   15
     ATOM                 X/A                 Y/B                 Z/C    
 *******************************************************************************
      1 T   6 C     1.111724258509E-01 -1.109283730766E-01  2.999971947021E-01
      2 T   6 C     4.442379534800E-01  2.221510841327E-01  3.000214351651E-01
      3 T   6 C     4.394011889711E-01 -4.470327777446E-01  3.000052089474E-01
      4 T   6 C     4.443463586735E-01 -1.110326174572E-01  2.999769961115E-01
      5 T   6 C    -2.196690751772E-01 -4.469954325670E-01  3.001555693142E-01
      6 T   6 C    -2.196204343662E-01 -1.060632284847E-01  2.998372740682E-01
      7 T   6 C     2.248907706348E-01  1.084135262433E-01  2.999921319000E-01
      8 T   6 C     2.159351151875E-01  4.407821470782E-01  3.000263066089E-01
      9 T   6 C     2.249996110868E-01 -2.163627763146E-01  3.000024607688E-01
     10 T   6 C    -4.503468409540E-01  1.083066821383E-01  3.000017723929E-01
     11 T   6 C    -4.444831918189E-01  4.443305509566E-01  3.000533475708E-01
     12 T   6 C    -4.445251039522E-01 -2.221318169270E-01  2.999449589897E-01
     13 T   6 C    -1.073857788006E-01  1.173989306529E-01  2.994523636052E-01
     14 T   6 C    -1.079493254133E-01  4.413555199977E-01  3.005361577492E-01
     15 T   6 C    -1.110036734014E-01 -2.221914186273E-01  2.999968221059E-01

 T = ATOM BELONGING TO THE ASYMMETRIC UNIT

 TOTAL ENERGY(DFT)(AU)( 24) -5.7038883367257E+02     DE (AU)   -7.423E-05

 UPDATED TRUST RADIUS     0.400E+01

 SYMMETRY ALLOWED FORCES  (COORDINATE, FORCE)

    1  1.6191568E-04    2 -1.3504652E-04    3  3.4238380E-06    4  2.1239995E-04
    5 -4.5349414E-05    6 -5.2384643E-05    7  6.0551608E-04    8  4.8577824E-04
    9 -1.4740826E-05   10  5.2022279E-04   11 -2.0156231E-04   12  4.4646757E-05
   13 -4.4741092E-04   14  3.2752252E-04   15 -2.8496476E-04   16 -8.2797271E-05
   17 -7.1046078E-04   18  2.6387980E-04   19 -1.2725416E-04   20  4.5438429E-05
   21 -8.2417498E-05   22 -4.7785175E-04   23 -6.6678306E-04   24  2.1957626E-06
   25 -3.0050236E-04   26  2.6062760E-04   27  7.6827787E-05   28 -5.8569235E-04
   29 -4.6463478E-05   30 -6.8807499E-07   31 -1.0014608E-04   32 -2.7690146E-04
   33  3.3620113E-05   34 -3.9802321E-04   35 -5.1049491E-05   36 -1.7059136E-05
   37  2.4412140E-05   38  6.6650056E-04   39 -4.0870593E-04   40  1.6394442E-04
   41 -1.7826352E-04   42  2.2930597E-04

 GRADIENT NORM     0.002040  GRADIENT THRESHOLD     0.500000

 EIGENVALUES OF THE ESTIMATED HESSIAN
  0.6473E-03  0.7105E-03  0.2249E-02  0.3132E-02  0.7102E-02  0.8048E-02
  0.1442E-01  0.2023E-01  0.2100E-01  0.2919E-01  0.4100E-01  0.4961E-01
  0.5121E-01  0.5462E-01  0.5858E-01  0.7047E-01  0.8022E-01  0.8024E-01
  0.1073      0.1092      0.1725      0.1729      0.1873      0.3274    
  0.3862      0.3880      0.3881      0.4745      0.5003      0.5027    
  0.7945      0.7953      0.9538       1.032       1.086       1.088    
   1.175       1.175       1.186       1.203       1.444       1.444    

 PREDICTED ENERGY CHANGE    -0.112E-03

 MAX GRADIENT      0.000710  THRESHOLD              0.000450 CONVERGED NO
 RMS GRADIENT      0.000315  THRESHOLD              0.000300 CONVERGED NO
 MAX DISPLAC.      0.448655  THRESHOLD              0.001800 CONVERGED NO
 RMS DISPLAC.      0.083716  THRESHOLD              0.001200 CONVERGED NO
 TTTTTTTTTTTTTTTTTTTTTTTTTTTTTT OPTI        TELAPSE      144.83 TCPU      142.79
 *******************************************************************************
 COORDINATE OPTIMIZATION - POINT    5
 *******************************************************************************
 LATTICE PARAMETERS (ANGSTROMS AND DEGREES) - BOHR = 0.5291772083 ANGSTROM
 PRIMITIVE CELL - CENTRING CODE 1/0 VOLUME=   412.228566 - DENSITY  0.725 g/cm^3
         A              B              C           ALPHA      BETA       GAMMA 
     7.40317242     7.40317242     8.68503800    90.000000  90.000000 120.000000
 *******************************************************************************
 ATOMS IN THE ASYMMETRIC UNIT   15 - ATOMS IN THE UNIT CELL:   15
     ATOM                 X/A                 Y/B                 Z/C    
[...]

aborting job:
application called MPI_Abort(MPI_COMM_WORLD, 1) - process 57
MPICH ERROR [Rank 102] [job id 2541589.13] [Mon Oct 31 22:15:42 2022] [nid005741] - Abort(1) (rank 102 in comm 0): application called MPI_Abort(MPI_COMM_WORLD, 1) - process 102

aborting job:
application called MPI_Abort(MPI_COMM_WORLD, 1) - process 102
MPICH ERROR [Rank 23] [job id 2541589.13] [Mon Oct 31 22:15:42 2022] [nid005741] - Abort(1) (rank 23 in comm 0): application called MPI_Abort(MPI_COMM_WORLD, 1) - process 23

aborting job:
application called MPI_Abort(MPI_COMM_WORLD, 1) - process 23
MPICH ERROR [Rank 40] [job id 2541589.13] [Mon Oct 31 22:15:42 2022] [nid005741] - Abort(1) (rank 40 in comm 0): application called MPI_Abort(MPI_COMM_WORLD, 1) - process 40

aborting job:
application called MPI_Abort(MPI_COMM_WORLD, 1) - process 40
MPICH ERROR [Rank 74] [job id 2541589.13] [Mon Oct 31 22:15:42 2022] [nid005741] - Abort(1) (rank 74 in comm 0): application called MPI_Abort(MPI_COMM_WORLD, 1) - process 74

aborting job:
application called MPI_Abort(MPI_COMM_WORLD, 1) - process 74
MPICH ERROR [Rank 75] [job id 2541589.13] [Mon Oct 31 22:15:42 2022] [nid005741] - Abort(1) (rank 75 in comm 0): application called MPI_Abort(MPI_COMM_WORLD, 1) - process 75

aborting job:
application called MPI_Abort(MPI_COMM_WORLD, 1) - process 75
MPICH ERROR [Rank 80] [job id 2541589.13] [Mon Oct 31 22:15:42 2022] [nid005741] - Abort(1) (rank 80 in comm 0): application called MPI_Abort(MPI_COMM_WORLD, 1) - process 80

aborting job:
application called MPI_Abort(MPI_COMM_WORLD, 1) - process 80
MPICH ERROR [Rank 90] [job id 2541589.13] [Mon Oct 31 22:15:42 2022] [nid005741] - Abort(1) (rank 90 in comm 0): application called MPI_Abort(MPI_COMM_WORLD, 1) - process 90

aborting job:
application called MPI_Abort(MPI_COMM_WORLD, 1) - process 90
MPICH ERROR [Rank 22] [job id 2541589.13] [Mon Oct 31 22:15:42 2022] [nid005741] - Abort(1) (rank 22 in comm 0): application called MPI_Abort(MPI_COMM_WORLD, 1) - process 22

aborting job:
application called MPI_Abort(MPI_COMM_WORLD, 1) - process 22
MPICH ERROR [Rank 63] [job id 2541589.13] [Mon Oct 31 22:15:42 2022] [nid005741] - Abort(1) (rank 63 in comm 0): application called MPI_Abort(MPI_COMM_WORLD, 1) - process 63

aborting job:
application called MPI_Abort(MPI_COMM_WORLD, 1) - process 63
MPICH ERROR [Rank 2] [job id 2541589.13] [Mon Oct 31 22:15:42 2022] [nid005741] - Abort(1) (rank 2 in comm 0): application called MPI_Abort(MPI_COMM_WORLD, 1) - process 2

aborting job:
application called MPI_Abort(MPI_COMM_WORLD, 1) - process 2
MPICH ERROR [Rank 3] [job id 2541589.13] [Mon Oct 31 22:15:42 2022] [nid005741] - Abort(1) (rank 3 in comm 0): application called MPI_Abort(MPI_COMM_WORLD, 1) - process 3

aborting job:
application called MPI_Abort(MPI_COMM_WORLD, 1) - process 3
MPICH ERROR [Rank 15] [job id 2541589.13] [Mon Oct 31 22:15:42 2022] [nid005741] - Abort(1) (rank 15 in comm 0): application called MPI_Abort(MPI_COMM_WORLD, 1) - process 15

aborting job:
application called MPI_Abort(MPI_COMM_WORLD, 1) - process 15
MPICH ERROR [Rank 36] [job id 2541589.13] [Mon Oct 31 22:15:42 2022] [nid005741] - Abort(1) (rank 36 in comm 0): application called MPI_Abort(MPI_COMM_WORLD, 1) - process 36

aborting job:
application called MPI_Abort(MPI_COMM_WORLD, 1) - process 36
MPICH ERROR [Rank 34] [job id 2541589.13] [Mon Oct 31 22:15:42 2022] [nid005741] - Abort(1) (rank 34 in comm 0): application called MPI_Abort(MPI_COMM_WORLD, 1) - process 34

aborting job:
application called MPI_Abort(MPI_COMM_WORLD, 1) - process 34
MPICH ERROR [Rank 41] [job id 2541589.13] [Mon Oct 31 22:15:42 2022] [nid005741] - Abort(1) (rank 41 in comm 0): application called MPI_Abort(MPI_COMM_WORLD, 1) - process 41

aborting job:
application called MPI_Abort(MPI_COMM_WORLD, 1) - process 41
MPICH ERROR [Rank 45] [job id 2541589.13] [Mon Oct 31 22:15:42 2022] [nid005741] - Abort(1) (rank 45 in comm 0): application called MPI_Abort(MPI_COMM_WORLD, 1) - process 45

aborting job:
application called MPI_Abort(MPI_COMM_WORLD, 1) - process 45
MPICH ERROR [Rank 72] [job id 2541589.13] [Mon Oct 31 22:15:42 2022] [nid005741] - Abort(1) (rank 72 in comm 0): application called MPI_Abort(MPI_COMM_WORLD, 1) - process 72

aborting job:
application called MPI_Abort(MPI_COMM_WORLD, 1) - process 72
MPICH ERROR [Rank 99] [job id 2541589.13] [Mon Oct 31 22:15:42 2022] [nid005741] - Abort(1) (rank 99 in comm 0): application called MPI_Abort(MPI_COMM_WORLD, 1) - process 99

aborting job:
application called MPI_Abort(MPI_COMM_WORLD, 1) - process 99
MPICH ERROR [Rank 116] [job id 2541589.13] [Mon Oct 31 22:15:42 2022] [nid005741] - Abort(1) (rank 116 in comm 0): application called MPI_Abort(MPI_COMM_WORLD, 1) - process 116

aborting job:
application called MPI_Abort(MPI_COMM_WORLD, 1) - process 116
MPICH ERROR [Rank 79] [job id 2541589.13] [Mon Oct 31 22:15:42 2022] [nid005741] - Abort(1) (rank 79 in comm 0): application called MPI_Abort(MPI_COMM_WORLD, 1) - process 79

aborting job:
application called MPI_Abort(MPI_COMM_WORLD, 1) - process 79
MPICH ERROR [Rank 85] [job id 2541589.13] [Mon Oct 31 22:15:42 2022] [nid005741] - Abort(1) (rank 85 in comm 0): application called MPI_Abort(MPI_COMM_WORLD, 1) - process 85

aborting job:
application called MPI_Abort(MPI_COMM_WORLD, 1) - process 85
MPICH ERROR [Rank 38] [job id 2541589.13] [Mon Oct 31 22:15:42 2022] [nid005741] - Abort(1) (rank 38 in comm 0): application called MPI_Abort(MPI_COMM_WORLD, 1) - process 38

aborting job:
application called MPI_Abort(MPI_COMM_WORLD, 1) - process 38
MPICH ERROR [Rank 68] [job id 2541589.13] [Mon Oct 31 22:15:42 2022] [nid005741] - Abort(1) (rank 68 in comm 0): application called MPI_Abort(MPI_COMM_WORLD, 1) - process 68

aborting job:
application called MPI_Abort(MPI_COMM_WORLD, 1) - process 68
MPICH ERROR [Rank 93] [job id 2541589.13] [Mon Oct 31 22:15:42 2022] [nid005741] - Abort(1) (rank 93 in comm 0): application called MPI_Abort(MPI_COMM_WORLD, 1) - process 93

aborting job:
application called MPI_Abort(MPI_COMM_WORLD, 1) - process 93
MPICH ERROR [Rank 94] [job id 2541589.13] [Mon Oct 31 22:15:42 2022] [nid005741] - Abort(1) (rank 94 in comm 0): application called MPI_Abort(MPI_COMM_WORLD, 1) - process 94

aborting job:
application called MPI_Abort(MPI_COMM_WORLD, 1) - process 94
MPICH ERROR [Rank 7] [job id 2541589.13] [Mon Oct 31 22:15:42 2022] [nid005741] - Abort(1) (rank 7 in comm 0): application called MPI_Abort(MPI_COMM_WORLD, 1) - process 7

aborting job:
application called MPI_Abort(MPI_COMM_WORLD, 1) - process 7
MPICH ERROR [Rank 29] [job id 2541589.13] [Mon Oct 31 22:15:42 2022] [nid005741] - Abort(1) (rank 29 in comm 0): application called MPI_Abort(MPI_COMM_WORLD, 1) - process 29

aborting job:
application called MPI_Abort(MPI_COMM_WORLD, 1) - process 29
MPICH ERROR [Rank 42] [job id 2541589.13] [Mon Oct 31 22:15:42 2022] [nid005741] - Abort(1) (rank 42 in comm 0): application called MPI_Abort(MPI_COMM_WORLD, 1) - process 42

aborting job:
application called MPI_Abort(MPI_COMM_WORLD, 1) - process 42
MPICH ERROR [Rank 54] [job id 2541589.13] [Mon Oct 31 22:15:42 2022] [nid005741] - Abort(1) (rank 54 in comm 0): application called MPI_Abort(MPI_COMM_WORLD, 1) - process 54

aborting job:
application called MPI_Abort(MPI_COMM_WORLD, 1) - process 54
MPICH ERROR [Rank 16] [job id 2541589.13] [Mon Oct 31 22:15:42 2022] [nid005741] - Abort(1) (rank 16 in comm 0): application called MPI_Abort(MPI_COMM_WORLD, 1) - process 16

aborting job:
application called MPI_Abort(MPI_COMM_WORLD, 1) - process 16
MPICH ERROR [Rank 58] [job id 2541589.13] [Mon Oct 31 22:15:42 2022] [nid005741] - Abort(1) (rank 58 in comm 0): application called MPI_Abort(MPI_COMM_WORLD, 1) - process 58

aborting job:
application called MPI_Abort(MPI_COMM_WORLD, 1) - process 58
MPICH ERROR [Rank 103] [job id 2541589.13] [Mon Oct 31 22:15:42 2022] [nid005741] - Abort(1) (rank 103 in comm 0): application called MPI_Abort(MPI_COMM_WORLD, 1) - process 103

aborting job:
application called MPI_Abort(MPI_COMM_WORLD, 1) - process 103
MPICH ERROR [Rank 19] [job id 2541589.13] [Mon Oct 31 22:15:42 2022] [nid005741] - Abort(1) (rank 19 in comm 0): application called MPI_Abort(MPI_COMM_WORLD, 1) - process 19

aborting job:
application called MPI_Abort(MPI_COMM_WORLD, 1) - process 19
MPICH ERROR [Rank 24] [job id 2541589.13] [Mon Oct 31 22:15:42 2022] [nid005741] - Abort(1) (rank 24 in comm 0): application called MPI_Abort(MPI_COMM_WORLD, 1) - process 24

aborting job:
application called MPI_Abort(MPI_COMM_WORLD, 1) - process 24
MPICH ERROR [Rank 26] [job id 2541589.13] [Mon Oct 31 22:15:42 2022] [nid005741] - Abort(1) (rank 26 in comm 0): application called MPI_Abort(MPI_COMM_WORLD, 1) - process 26

aborting job:
application called MPI_Abort(MPI_COMM_WORLD, 1) - process 26
MPICH ERROR [Rank 11] [job id 2541589.13] [Mon Oct 31 22:15:42 2022] [nid005741] - Abort(1) (rank 11 in comm 0): application called MPI_Abort(MPI_COMM_WORLD, 1) - process 11

aborting job:
application called MPI_Abort(MPI_COMM_WORLD, 1) - process 11
MPICH ERROR [Rank 76] [job id 2541589.13] [Mon Oct 31 22:15:42 2022] [nid005741] - Abort(1) (rank 76 in comm 0): application called MPI_Abort(MPI_COMM_WORLD, 1) - process 76

aborting job:
application called MPI_Abort(MPI_COMM_WORLD, 1) - process 76
MPICH ERROR [Rank 97] [job id 2541589.13] [Mon Oct 31 22:15:42 2022] [nid005741] - Abort(1) (rank 97 in comm 0): application called MPI_Abort(MPI_COMM_WORLD, 1) - process 97

aborting job:
application called MPI_Abort(MPI_COMM_WORLD, 1) - process 97
MPICH ERROR [Rank 56] [job id 2541589.13] [Mon Oct 31 22:15:42 2022] [nid005741] - Abort(1) (rank 56 in comm 0): application called MPI_Abort(MPI_COMM_WORLD, 1) - process 56

aborting job:
application called MPI_Abort(MPI_COMM_WORLD, 1) - process 56
MPICH ERROR [Rank 67] [job id 2541589.13] [Mon Oct 31 22:15:42 2022] [nid005741] - Abort(1) (rank 67 in comm 0): application called MPI_Abort(MPI_COMM_WORLD, 1) - process 67

aborting job:
application called MPI_Abort(MPI_COMM_WORLD, 1) - process 67
MPICH ERROR [Rank 62] [job id 2541589.13] [Mon Oct 31 22:15:42 2022] [nid005741] - Abort(1) (rank 62 in comm 0): application called MPI_Abort(MPI_COMM_WORLD, 1) - process 62

aborting job:
application called MPI_Abort(MPI_COMM_WORLD, 1) - process 62
MPICH ERROR [Rank 78] [job id 2541589.13] [Mon Oct 31 22:15:42 2022] [nid005741] - Abort(1) (rank 78 in comm 0): application called MPI_Abort(MPI_COMM_WORLD, 1) - process 78

aborting job:
application called MPI_Abort(MPI_COMM_WORLD, 1) - process 78
MPICH ERROR [Rank 107] [job id 2541589.13] [Mon Oct 31 22:15:42 2022] [nid005741] - Abort(1) (rank 107 in comm 0): application called MPI_Abort(MPI_COMM_WORLD, 1) - process 107

aborting job:
application called MPI_Abort(MPI_COMM_WORLD, 1) - process 107
MPICH ERROR [Rank 122] [job id 2541589.13] [Mon Oct 31 22:15:42 2022] [nid005741] - Abort(1) (rank 122 in comm 0): application called MPI_Abort(MPI_COMM_WORLD, 1) - process 122

aborting job:
application called MPI_Abort(MPI_COMM_WORLD, 1) - process 122
MPICH ERROR [Rank 124] [job id 2541589.13] [Mon Oct 31 22:15:42 2022] [nid005741] - Abort(1) (rank 124 in comm 0): application called MPI_Abort(MPI_COMM_WORLD, 1) - process 124

aborting job:
application called MPI_Abort(MPI_COMM_WORLD, 1) - process 124
MPICH ERROR [Rank 6] [job id 2541589.13] [Mon Oct 31 22:15:42 2022] [nid005741] - Abort(1) (rank 6 in comm 0): application called MPI_Abort(MPI_COMM_WORLD, 1) - process 6

aborting job:
application called MPI_Abort(MPI_COMM_WORLD, 1) - process 6
MPICH ERROR [Rank 35] [job id 2541589.13] [Mon Oct 31 22:15:42 2022] [nid005741] - Abort(1) (rank 35 in comm 0): application called MPI_Abort(MPI_COMM_WORLD, 1) - process 35

aborting job:
application called MPI_Abort(MPI_COMM_WORLD, 1) - process 35
MPICH ERROR [Rank 105] [job id 2541589.13] [Mon Oct 31 22:15:42 2022] [nid005741] - Abort(1) (rank 105 in comm 0): application called MPI_Abort(MPI_COMM_WORLD, 1) - process 105

aborting job:
application called MPI_Abort(MPI_COMM_WORLD, 1) - process 105
MPICH ERROR [Rank 108] [job id 2541589.13] [Mon Oct 31 22:15:42 2022] [nid005741] - Abort(1) (rank 108 in comm 0): application called MPI_Abort(MPI_COMM_WORLD, 1) - process 108

aborting job:
application called MPI_Abort(MPI_COMM_WORLD, 1) - process 108
MPICH ERROR [Rank 109] [job id 2541589.13] [Mon Oct 31 22:15:42 2022] [nid005741] - Abort(1) (rank 109 in comm 0): application called MPI_Abort(MPI_COMM_WORLD, 1) - process 109

aborting job:
application called MPI_Abort(MPI_COMM_WORLD, 1) - process 109
MPICH ERROR [Rank 115] [job id 2541589.13] [Mon Oct 31 22:15:42 2022] [nid005741] - Abort(1) (rank 115 in comm 0): application called MPI_Abort(MPI_COMM_WORLD, 1) - process 115

aborting job:
application called MPI_Abort(MPI_COMM_WORLD, 1) - process 115
MPICH ERROR [Rank 0] [job id 2541589.13] [Mon Oct 31 22:15:42 2022] [nid005741] - Abort(1) (rank 0 in comm 0): application called MPI_Abort(MPI_COMM_WORLD, 1) - process 0

aborting job:
application called MPI_Abort(MPI_COMM_WORLD, 1) - process 0
MPICH ERROR [Rank 12] [job id 2541589.13] [Mon Oct 31 22:15:42 2022] [nid005741] - Abort(1) (rank 12 in comm 0): application called MPI_Abort(MPI_COMM_WORLD, 1) - process 12

aborting job:
application called MPI_Abort(MPI_COMM_WORLD, 1) - process 12
MPICH ERROR [Rank 17] [job id 2541589.13] [Mon Oct 31 22:15:42 2022] [nid005741] - Abort(1) (rank 17 in comm 0): application called MPI_Abort(MPI_COMM_WORLD, 1) - process 17

aborting job:
application called MPI_Abort(MPI_COMM_WORLD, 1) - process 17
MPICH ERROR [Rank 20] [job id 2541589.13] [Mon Oct 31 22:15:42 2022] [nid005741] - Abort(1) (rank 20 in comm 0): application called MPI_Abort(MPI_COMM_WORLD, 1) - process 20

aborting job:
application called MPI_Abort(MPI_COMM_WORLD, 1) - process 20
MPICH ERROR [Rank 44] [job id 2541589.13] [Mon Oct 31 22:15:42 2022] [nid005741] - Abort(1) (rank 44 in comm 0): application called MPI_Abort(MPI_COMM_WORLD, 1) - process 44

aborting job:
application called MPI_Abort(MPI_COMM_WORLD, 1) - process 44
MPICH ERROR [Rank 47] [job id 2541589.13] [Mon Oct 31 22:15:42 2022] [nid005741] - Abort(1) (rank 47 in comm 0): application called MPI_Abort(MPI_COMM_WORLD, 1) - process 47

aborting job:
application called MPI_Abort(MPI_COMM_WORLD, 1) - process 47
MPICH ERROR [Rank 64] [job id 2541589.13] [Mon Oct 31 22:15:42 2022] [nid005741] - Abort(1) (rank 64 in comm 0): application called MPI_Abort(MPI_COMM_WORLD, 1) - process 64

aborting job:
application called MPI_Abort(MPI_COMM_WORLD, 1) - process 64
MPICH ERROR [Rank 98] [job id 2541589.13] [Mon Oct 31 22:15:42 2022] [nid005741] - Abort(1) (rank 98 in comm 0): application called MPI_Abort(MPI_COMM_WORLD, 1) - process 98

aborting job:
application called MPI_Abort(MPI_COMM_WORLD, 1) - process 98
MPICH ERROR [Rank 119] [job id 2541589.13] [Mon Oct 31 22:15:42 2022] [nid005741] - Abort(1) (rank 119 in comm 0): application called MPI_Abort(MPI_COMM_WORLD, 1) - process 119

aborting job:
application called MPI_Abort(MPI_COMM_WORLD, 1) - process 119
MPICH ERROR [Rank 120] [job id 2541589.13] [Mon Oct 31 22:15:42 2022] [nid005741] - Abort(1) (rank 120 in comm 0): application called MPI_Abort(MPI_COMM_WORLD, 1) - process 120

aborting job:
application called MPI_Abort(MPI_COMM_WORLD, 1) - process 120
MPICH ERROR [Rank 4] [job id 2541589.13] [Mon Oct 31 22:15:42 2022] [nid005741] - Abort(1) (rank 4 in comm 0): application called MPI_Abort(MPI_COMM_WORLD, 1) - process 4

aborting job:
application called MPI_Abort(MPI_COMM_WORLD, 1) - process 4
MPICH ERROR [Rank 13] [job id 2541589.13] [Mon Oct 31 22:15:42 2022] [nid005741] - Abort(1) (rank 13 in comm 0): application called MPI_Abort(MPI_COMM_WORLD, 1) - process 13

aborting job:
application called MPI_Abort(MPI_COMM_WORLD, 1) - process 13
MPICH ERROR [Rank 18] [job id 2541589.13] [Mon Oct 31 22:15:42 2022] [nid005741] - Abort(1) (rank 18 in comm 0): application called MPI_Abort(MPI_COMM_WORLD, 1) - process 18

aborting job:
application called MPI_Abort(MPI_COMM_WORLD, 1) - process 18
MPICH ERROR [Rank 48] [job id 2541589.13] [Mon Oct 31 22:15:42 2022] [nid005741] - Abort(1) (rank 48 in comm 0): application called MPI_Abort(MPI_COMM_WORLD, 1) - process 48

aborting job:
application called MPI_Abort(MPI_COMM_WORLD, 1) - process 48
MPICH ERROR [Rank 52] [job id 2541589.13] [Mon Oct 31 22:15:42 2022] [nid005741] - Abort(1) (rank 52 in comm 0): application called MPI_Abort(MPI_COMM_WORLD, 1) - process 52

aborting job:
application called MPI_Abort(MPI_COMM_WORLD, 1) - process 52
MPICH ERROR [Rank 53] [job id 2541589.13] [Mon Oct 31 22:15:42 2022] [nid005741] - Abort(1) (rank 53 in comm 0): application called MPI_Abort(MPI_COMM_WORLD, 1) - process 53

aborting job:
application called MPI_Abort(MPI_COMM_WORLD, 1) - process 53
MPICH ERROR [Rank 60] [job id 2541589.13] [Mon Oct 31 22:15:42 2022] [nid005741] - Abort(1) (rank 60 in comm 0): application called MPI_Abort(MPI_COMM_WORLD, 1) - process 60

aborting job:
application called MPI_Abort(MPI_COMM_WORLD, 1) - process 60
MPICH ERROR [Rank 95] [job id 2541589.13] [Mon Oct 31 22:15:42 2022] [nid005741] - Abort(1) (rank 95 in comm 0): application called MPI_Abort(MPI_COMM_WORLD, 1) - process 95

aborting job:
application called MPI_Abort(MPI_COMM_WORLD, 1) - process 95
MPICH ERROR [Rank 25] [job id 2541589.13] [Mon Oct 31 22:15:42 2022] [nid005741] - Abort(1) (rank 25 in comm 0): application called MPI_Abort(MPI_COMM_WORLD, 1) - process 25

aborting job:
application called MPI_Abort(MPI_COMM_WORLD, 1) - process 25
MPICH ERROR [Rank 27] [job id 2541589.13] [Mon Oct 31 22:15:42 2022] [nid005741] - Abort(1) (rank 27 in comm 0): application called MPI_Abort(MPI_COMM_WORLD, 1) - process 27

aborting job:
application called MPI_Abort(MPI_COMM_WORLD, 1) - process 27
MPICH ERROR [Rank 28] [job id 2541589.13] [Mon Oct 31 22:15:42 2022] [nid005741] - Abort(1) (rank 28 in comm 0): application called MPI_Abort(MPI_COMM_WORLD, 1) - process 28

aborting job:
application called MPI_Abort(MPI_COMM_WORLD, 1) - process 28
MPICH ERROR [Rank 89] [job id 2541589.13] [Mon Oct 31 22:15:42 2022] [nid005741] - Abort(1) (rank 89 in comm 0): application called MPI_Abort(MPI_COMM_WORLD, 1) - process 89

aborting job:
application called MPI_Abort(MPI_COMM_WORLD, 1) - process 89
MPICH ERROR [Rank 33] [job id 2541589.13] [Mon Oct 31 22:15:42 2022] [nid005741] - Abort(1) (rank 33 in comm 0): application called MPI_Abort(MPI_COMM_WORLD, 1) - process 33

aborting job:
application called MPI_Abort(MPI_COMM_WORLD, 1) - process 33
srun: error: nid005741: tasks 0-127: Exited with exit code 255
srun: launch/slurm: _step_signal: Terminating StepId=2541589.13
end_date Mon Oct 31 22:15:43 GMT 2022
 
TEMPORARY          SAVED (in /mnt/lustre/a2fs-work2/work/e05/e05/bcamino/quantum_computing/test_model/optgeom)
fort.87            graphene_3v_G.ERROR108      Oct 31 22:15
fort.34            graphene_3v_G.gui 1492     Oct 31 22:15
fort.33            graphene_3v_G.xyz 105607   Oct 31 22:15
fort.9             graphene_3v_G.f9  1548888  Oct 31 22:15
fort.98            graphene_3v_G.f98 4031261  Oct 31 22:15
SCFOUT.LOG         graphene_3v_G.SCFLOG4317385  Oct 31 22:15
OPTINFO.DAT        graphene_3v_G.OPTINFO11906031 Oct 31 22:15
HESSOPT.DAT        graphene_3v_G.HESSOPT37485    Oct 31 22:15
opta001            opta002            
Disk usage:<du -m>
547	/mnt/lustre/a2fs-work2/work/e05/e05/bcamino/quantum_computing/test_model/optgeom/tmp_graphene_3v_G_
</du -m>
Filesystem                                          1K-blocks          Used     Available Use% Mounted on
10.253.102.2@o2ib1:10.253.102.3@o2ib1:/cls01097 3582178503216 1815139396612 1730840666936  52% /mnt/lustre/a2fs-work2
10.253.102.2@o2ib1:10.253.102.3@o2ib1:/cls01097 3582178503216 1815139396612 1730840666936  52% /mnt/lustre/a2fs-work2
