date:                Mon Oct 31 17:11:48 GMT 2022
hostname:            nid005741
system:              Linux nid005741 4.12.14-197.78_9.1.64-cray_shasta_c #1 SMP Wed Aug 25 14:56:40 UTC 2021 (4e2a900) x86_64 x86_64 x86_64 GNU/Linux
user:                bcamino
input:               /mnt/lustre/a2fs-work2/work/e05/e05/bcamino/quantum_computing/test_model/optgeom/graphene_1v_A.d12
output:              /mnt/lustre/a2fs-work2/work/e05/e05/bcamino/quantum_computing/test_model/optgeom/graphene_1v_A.out
executable script:   /work/e05/e05/bcamino/runCRYSTAL/Pcry_slurm
executable:          Pcrystal
Command:             srun --hint=nomultithread --distribution=block:block Pcrystal
Slurm JobID:         
temporary directory: /mnt/lustre/a2fs-work2/work/e05/e05/bcamino/quantum_computing/test_model/optgeom/tmp_graphene_1v_A_      
input data /mnt/lustre/a2fs-work2/work/e05/e05/bcamino/quantum_computing/test_model/optgeom/graphene_1v_A.d12
Final
EXTERNAL
SYMMREMO
OPTGEOM
ATOMONLY
END
END
6 8
0 0 6 2.0 1.0
  13575.349682      0.00022245814352
  2035.2333680      0.00172327382520
  463.22562359      0.00892557153140
  131.20019598      0.03572798450200
  42.853015891      0.11076259931000
  15.584185766      0.24295627626000
0 0 2 2.0 1.0
  6.2067138508      0.41440263448000
  2.5764896527      0.23744968655000
0 0 1 0.0 1.0
  0.4941102000      1.00000000000000
0 0 1 0.0 1.0
  0.1644071000      1.00000000000000
0 2 4 2.0 1.0
  34.697232244      0.00533336578050
  7.9582622826      0.03586410909200
  2.3780826883      0.14215873329000
  0.8143320818      0.34270471845000
0 2 1 0.0 1.0
  0.5662417100      1.00000000000000
0 2 1 0.0 1.0
  0.1973545000      1.00000000000000
0 3 1 0.0 1.0
  0.5791584200      1.00000000000000
99 0
ENDBS
DFT
PBE  
ENDDFT
TOLINTEG
8 8 8 8 16
SCFDIR
SHRINK
8 16  
MAXCYCLE
200
TOLDEE
9 
ENDSCF
input data /mnt/lustre/a2fs-work2/work/e05/e05/bcamino/quantum_computing/test_model/optgeom/graphene_1v_A.gui
         128 PROCESSORS WORKING

         
 *******************************************************************************
 *                                                                             *
 *                               CRYSTAL17                                     *
 *                      public : 1.0.2 - March 1st, 2018 STFC/Archer2 build    *
 *                       HTTP://WWW.CRYSTAL.UNITO.IT                           *
 *                                                                             *
 *                              MAIN AUTHORS                                   *
 *                                                                             *
 *  R. DOVESI(1,11), V.R. SAUNDERS(2), C. ROETTI(1,11), R. ORLANDO(1,11),      *
 *  C.M. ZICOVICH-WILSON(1,3), F. PASCALE(4), B. CIVALLERI(1,11),              *
 *  K. DOLL(5), N.M. HARRISON(2,6), I.J. BUSH(7), Ph. D'ARCO(8),               *
 *  M. LLUNELL(9), M. CAUSA'(10), Y. NOEL(8), L. MASCHIO(1,11), A. ERBA(1,11)  *
 *  M. RE'RAT(14), S. CASASSA(1,11)                                            *
 *                                                                             *
 *        CONTRIBUTIONS TO THE CODE HAVE ALSO BEEN GIVEN BY                    *
 *                                                                             *
 *  M. FERRABONE(1,11), M. DE LA PIERRE(1,11), M. FERRERO(1,11),               *
 *  J. BAIMA(1,11), E. ALBANESE(1,11), M.F. PEINTINGER(12), R. BAST(13),       *
 *  B. KIRTMAN(15), V. LACIVITA(1,11), R. DEMICHELIS(1,16)                     *
 *  G. BRANDEBURG(17), S. SALUSTRO(1,11), G. SANSONE(1,11)                     *
 *  M.T. RUGGIERO(18)                                                          *
 *                                                                             *
 * (1) THEORETICAL CHEMISTRY GROUP - UNIVERSITA' DI TORINO - TORINO (ITALY)    *
 * (2) COMPUTATIONAL SCIENCE & ENGINEERING DEPARTMENT - STFC DARESBURY (UK)    *
 * (3) UNIVERSIDAD AUTONOMA DEL ESTADO DE MORELOS - CUERNAVACA (MEXICO)        *
 * (4) UNIVERSITE' DE LORRAINE - NANCY (FRANCE)                                *
 * (5) UNIVERSITAET STUTTGART- STUTTGART (GERMANY)                             *
 * (6) IMPERIAL COLLEGE - LONDON (UK)                                          *
 * (7) OXFORD E-RESEARCH CENTRE - OXFORD (UK)                                  *
 * (8) UPMC - SORBONNE UNIVERSITES - PARIS (FRANCE)                            *
 * (9) UNIVERSIDAD DE BARCELONA - BARCELONA (SPAIN)                            *
 *(10) UNIVERSITA' DI NAPOLI "FEDERICO II" - NAPOLI (ITALY)                    *
 *(11) NIS - NANOSTRUCTURED INTERFACES AND SURFACES - TORINO (ITALY)           *
 *(12) MPI FUER CHEMISCHE ENERGIEKONVERSION - MUELHEIM AN DER RUHR (GERMANY)   *
 *(13) UNIVERSITY OF TROMSO - TROMSO (NORWAY)                                  *
 *(14) UNIVERSITE' DE PAU ET DES PAYS DE L'ADOUR - PAU (FRANCE)                *
 *(15) UNIVERSITY OF CALIFORNIA SANTA BARBARA - SANTA BARBARA (USA)            *
 *(16) CURTIN UNIVERSITY - PERTH (AUSTRALIA)                                   *
 *(17) UNIVERSITY COLLEGE LONDON - LONDON (UK)                                 *
 *(18) CAMBRIDGE UNIVERSITY - CAMBRIDGE (UK)                                   *
 *                                                                             *
 *******************************************************************************
 EEEEEEEEEE STARTING  DATE 31 10 2022 TIME 17:11:51.3
 Final                                                                           

 GEOMETRY INPUT FROM EXTERNAL FILE (FORTRAN UNIT 34)
 3D - CRYSTAL 

 *******************************************************************************
 LATTICE PARAMETERS  (ANGSTROMS AND DEGREES) - PRIMITIVE CELL
       A          B          C        ALPHA      BETA     GAMMA        VOLUME
    7.40317    7.40317    8.68504    90.00000  90.00000 120.00000    412.228566
 INFORMATION **** CHKGRP **** SPGR WITH NO INVERSION

 NUMBER OF IRREDUCIBLE ATOMS IN THE CELL:   17

 CARTESIAN COORDINATES (ANGSTROM) - IRREDUCIBLE ATOMS AND SYMMETRY RELATED

 AT.IRR.  AT  AT.N.          X                   Y                   Z
     1     1     6    1.233862070683E+00  7.123705986520E-01  2.605511400000E+00
     2     2     6    2.467724141366E+00  2.849482394607E+00  2.605511400000E+00
     3     3     6    3.701586212049E+00  4.986594190562E+00  2.605511400000E+00
     4     4     6    2.467724141366E+00 -1.424741197304E+00  2.605511400000E+00
     5     5     6    3.701586212049E+00  7.123705986520E-01  2.605511400000E+00
     6     6     6    4.935448282733E+00  2.849482394607E+00  2.605511400000E+00
     7     7     6    3.701586212049E+00 -3.561852993259E+00  2.605511400000E+00
     8     8     6    4.935448282733E+00 -1.424741197304E+00  2.605511400000E+00
     9     9     6    6.169310353416E+00  7.123705986520E-01  2.605511400000E+00
    10    10     6    1.233862070683E+00 -7.123705986520E-01  2.605511400000E+00
    11    11     6    2.467724141366E+00  1.424741197304E+00  2.605511400000E+00
    12    12     6    3.701586212049E+00  3.561852993259E+00  2.605511400000E+00
    13    13     6    3.701586212049E+00 -7.123705986520E-01  2.605511400000E+00
    14    14     6    4.935448282733E+00  1.424741197304E+00  2.605511400000E+00
    15    15     6    3.701586212049E+00 -4.986594190562E+00  2.605511400000E+00
    16    16     6    4.935448282733E+00 -2.849482394607E+00  2.605511400000E+00
    17    17     6    6.169310353416E+00 -7.123705986520E-01  2.605511400000E+00

 SPACE  GROUP  N.                     :    1
 NUMBER OF SYMMETRY OPERATORS         :    1
 *******************************************************************************
 LATTICE PARAMETERS (ANGSTROMS AND DEGREES) - BOHR = 0.5291772083 ANGSTROM
 PRIMITIVE CELL - CENTRING CODE 1/0 VOLUME=   412.228566 - DENSITY  0.822 g/cm^3
         A              B              C           ALPHA      BETA       GAMMA 
     7.40317242     7.40317242     8.68503800    90.000000  90.000000 120.000000
 *******************************************************************************
 ATOMS IN THE ASYMMETRIC UNIT   17 - ATOMS IN THE UNIT CELL:   17
     ATOM                 X/A                 Y/B                 Z/C    
 *******************************************************************************
      1 T   6 C     1.111111111111E-01  2.222222222222E-01  3.000000000000E-01
      2 T   6 C     1.111111111111E-01 -4.444444444445E-01  3.000000000000E-01
      3 T   6 C     1.111111111111E-01 -1.111111111111E-01  3.000000000000E-01
      4 T   6 C     4.444444444445E-01  2.222222222222E-01  3.000000000000E-01
      5 T   6 C     4.444444444444E-01 -4.444444444444E-01  3.000000000000E-01
      6 T   6 C     4.444444444446E-01 -1.111111111110E-01  3.000000000000E-01
      7 T   6 C    -2.222222222222E-01  2.222222222222E-01  3.000000000000E-01
      8 T   6 C    -2.222222222221E-01 -4.444444444443E-01  3.000000000000E-01
      9 T   6 C    -2.222222222221E-01 -1.111111111110E-01  3.000000000000E-01
     10 T   6 C     2.222222222222E-01  1.111111111111E-01  3.000000000000E-01
     11 T   6 C     2.222222222222E-01  4.444444444445E-01  3.000000000000E-01
     12 T   6 C     2.222222222222E-01 -2.222222222222E-01  3.000000000000E-01
     13 T   6 C    -4.444444444444E-01  4.444444444444E-01  3.000000000000E-01
     14 T   6 C    -4.444444444443E-01 -2.222222222221E-01  3.000000000000E-01
     15 T   6 C    -1.111111111111E-01  1.111111111111E-01  3.000000000000E-01
     16 T   6 C    -1.111111111110E-01  4.444444444446E-01  3.000000000000E-01
     17 T   6 C    -1.111111111110E-01 -2.222222222221E-01  3.000000000000E-01

 T = ATOM BELONGING TO THE ASYMMETRIC UNIT
 *******************************************************************************
 * GEOMETRY EDITING - INPUT COORDINATES ARE GIVEN IN ANGSTROM         
 *******************************************************************************

 USE OF SYMMETRY WILL BE SUBSEQUENTLY SUSPENDED
 INFORMATION **** NEW DEFAULT **** FINALRUN 4 FOR GEOMETRY OPTIMIZATIONS
 INFORMATION **** NEW DEFAULT **** OPTGEOM OPTIMIZES BOTH ATOMIC COORDINATES AND CELL PARAMETERS
 INFORMATION **** NEW DEFAULT **** TOL. ON ATOMIC DISP TO REDEFINE REF. GEOMETRY: 0.8 Angs
 INFORMATION **** NEW DEFAULT **** N POINTS TO REDEFINE REF. GEOMETRY: N OF OPT DEGS OF FREEDOM
 INFORMATION **** NEW DEFAULT **** TOL. ON ENERGY TO REDEFINE REF. GEOMETRY: 10**-3*(5*N. ATOMS)
 INFORMATION **** ATOMONLY **** ONLY ATOMIC COORDINATES ARE OPTIMIZED

 IMPORTANT INFORMATION:
 THE COORDINATE SYSTEM ADOPTED IN THE OPTIMIZATION IS NOT IN
 GENERAL HOMOGENEOUS UNITS. FOR THIS REASON THE GRADIENT AND 
 HESSIAN MATRIX IN TERMS OF THIS SYSTEM ARE GIVEN WITHOUT
 UNITS. FOR MORE DETAILS SEE THE MANUAL.

 *******************************************************************************
 ATOMIC POSITIONS OPTIMIZATION CONTROL

 INITIAL TRUST RADIUS         0.50000 MAXIMUM TRUST RADIUS               4.00000
 MAXIMUM GRADIENT COMPONENT   0.00045 MAXIMUM DISPLACEMENT COMPONENT     0.00180
 R.M.S. OF GRADIENT COMPONENT 0.00030 R.M.S. OF DISPLACEMENT COMPONENTS  0.00120
 THRESHOLD ON ENERGY CHANGE 0.100E-06 EXTRAPOLATING POLYNOMIAL ORDER           2
 MAXIMUM ALLOWED NUMBER OF STEPS   -1 SORTING OF ENERGY POINTS:               NO
 ANALYTICAL  GRADIENT                 HESSIAN UPDATING                      BFGS
 STEP SIZE NUMERICAL GRADIENT 0.00100
 INITIAL HESSIAN MATRIX: SCHLEGEL MODEL 2
 *******************************************************************************


 GCALCO - MAX INDICES DIRECT LATTICE VECTOR    16    16    12
 NO.OF VECTORS CREATED 6999 STARS  379 RMAX   166.99060 BOHR

 GEOMETRY FOR WAVE FUNCTION - DIMENSIONALITY OF THE SYSTEM    3
 (NON PERIODIC DIRECTION: LATTICE PARAMETER FORMALLY SET TO 500)
 *******************************************************************************
 LATTICE PARAMETERS (ANGSTROMS AND DEGREES) - BOHR = 0.5291772083 ANGSTROM
 PRIMITIVE CELL - CENTRING CODE 1/0 VOLUME=   412.228566 - DENSITY  0.822 g/cm^3
         A              B              C           ALPHA      BETA       GAMMA 
     7.40317242     7.40317242     8.68503800    90.000000  90.000000 120.000000
 *******************************************************************************
 ATOMS IN THE ASYMMETRIC UNIT   17 - ATOMS IN THE UNIT CELL:   17
     ATOM                 X/A                 Y/B                 Z/C    
 *******************************************************************************
      1 T   6 C     1.111111111111E-01  2.222222222222E-01  3.000000000000E-01
      2 T   6 C     1.111111111111E-01 -4.444444444445E-01  3.000000000000E-01
      3 T   6 C     1.111111111111E-01 -1.111111111111E-01  3.000000000000E-01
      4 T   6 C     4.444444444445E-01  2.222222222222E-01  3.000000000000E-01
      5 T   6 C     4.444444444444E-01 -4.444444444444E-01  3.000000000000E-01
      6 T   6 C     4.444444444446E-01 -1.111111111110E-01  3.000000000000E-01
      7 T   6 C    -2.222222222222E-01  2.222222222222E-01  3.000000000000E-01
      8 T   6 C    -2.222222222221E-01 -4.444444444443E-01  3.000000000000E-01
      9 T   6 C    -2.222222222221E-01 -1.111111111110E-01  3.000000000000E-01
     10 T   6 C     2.222222222222E-01  1.111111111111E-01  3.000000000000E-01
     11 T   6 C     2.222222222222E-01  4.444444444445E-01  3.000000000000E-01
     12 T   6 C     2.222222222222E-01 -2.222222222222E-01  3.000000000000E-01
     13 T   6 C    -4.444444444444E-01  4.444444444444E-01  3.000000000000E-01
     14 T   6 C    -4.444444444443E-01 -2.222222222221E-01  3.000000000000E-01
     15 T   6 C    -1.111111111111E-01  1.111111111111E-01  3.000000000000E-01
     16 T   6 C    -1.111111111110E-01  4.444444444446E-01  3.000000000000E-01
     17 T   6 C    -1.111111111110E-01 -2.222222222221E-01  3.000000000000E-01

 T = ATOM BELONGING TO THE ASYMMETRIC UNIT

 ****    1 SYMMOPS - TRANSLATORS IN FRACTIONAL UNITS
 **** MATRICES AND TRANSLATORS IN THE CRYSTALLOGRAPHIC REFERENCE FRAME
   V INV                    ROTATION MATRICES                   TRANSLATORS
   1   1  1.00  0.00  0.00  0.00  1.00  0.00  0.00  0.00  1.00  0.00  0.00  0.00

 DIRECT LATTICE VECTORS CARTESIAN COMPONENTS (ANGSTROM)
          X                    Y                    Z
   0.370158621205E+01  -0.641133538787E+01   0.000000000000E+00
   0.370158621205E+01   0.641133538787E+01   0.000000000000E+00
   0.000000000000E+00   0.000000000000E+00   0.868503800000E+01


 CARTESIAN COORDINATES - PRIMITIVE CELL
 *******************************************************************************
 *      ATOM          X(ANGSTROM)         Y(ANGSTROM)         Z(ANGSTROM)
 *******************************************************************************
    1     6 C     1.233862070683E+00  7.123705986520E-01  2.605511400000E+00
    2     6 C     2.467724141366E+00  2.849482394607E+00  2.605511400000E+00
    3     6 C     3.701586212049E+00  4.986594190562E+00  2.605511400000E+00
    4     6 C     2.467724141366E+00 -1.424741197304E+00  2.605511400000E+00
    5     6 C     3.701586212049E+00  7.123705986520E-01  2.605511400000E+00
    6     6 C     4.935448282733E+00  2.849482394607E+00  2.605511400000E+00
    7     6 C     3.701586212049E+00 -3.561852993259E+00  2.605511400000E+00
    8     6 C     4.935448282733E+00 -1.424741197304E+00  2.605511400000E+00
    9     6 C     6.169310353416E+00  7.123705986520E-01  2.605511400000E+00
   10     6 C     1.233862070683E+00 -7.123705986520E-01  2.605511400000E+00
   11     6 C     2.467724141366E+00  1.424741197304E+00  2.605511400000E+00
   12     6 C     3.701586212049E+00  3.561852993259E+00  2.605511400000E+00
   13     6 C     3.701586212049E+00 -7.123705986520E-01  2.605511400000E+00
   14     6 C     4.935448282733E+00  1.424741197304E+00  2.605511400000E+00
   15     6 C     3.701586212049E+00 -4.986594190562E+00  2.605511400000E+00
   16     6 C     4.935448282733E+00 -2.849482394607E+00  2.605511400000E+00
   17     6 C     6.169310353416E+00 -7.123705986520E-01  2.605511400000E+00

 *******************************************************************************
 LOCAL ATOMIC FUNCTIONS BASIS SET
 *******************************************************************************
   ATOM   X(AU)   Y(AU)   Z(AU)  N. TYPE  EXPONENT  S COEF   P COEF   D/F/G COEF
 *******************************************************************************
   1 C    2.332   1.346   4.924
                                  1 S  
                                         1.358E+04 2.225E-04 0.000E+00 0.000E+00
                                         2.035E+03 1.723E-03 0.000E+00 0.000E+00
                                         4.632E+02 8.926E-03 0.000E+00 0.000E+00
                                         1.312E+02 3.573E-02 0.000E+00 0.000E+00
                                         4.285E+01 1.108E-01 0.000E+00 0.000E+00
                                         1.558E+01 2.430E-01 0.000E+00 0.000E+00
                                  2 S  
                                         6.207E+00 4.144E-01 0.000E+00 0.000E+00
                                         2.576E+00 2.374E-01 0.000E+00 0.000E+00
                                  3 S  
                                         4.941E-01 1.000E+00 0.000E+00 0.000E+00
                                  4 S  
                                         1.644E-01 1.000E+00 0.000E+00 0.000E+00
                           5-     7 P  
                                         3.470E+01 0.000E+00 5.333E-03 0.000E+00
                                         7.958E+00 0.000E+00 3.586E-02 0.000E+00
                                         2.378E+00 0.000E+00 1.422E-01 0.000E+00
                                         8.143E-01 0.000E+00 3.427E-01 0.000E+00
                           8-    10 P  
                                         5.662E-01 0.000E+00 1.000E+00 0.000E+00
                          11-    13 P  
                                         1.974E-01 0.000E+00 1.000E+00 0.000E+00
                          14-    18 D  
                                         5.792E-01 0.000E+00 0.000E+00 1.000E+00
   2 C    4.663   5.385   4.924
   3 C    6.995   9.423   4.924
   4 C    4.663  -2.692   4.924
   5 C    6.995   1.346   4.924
   6 C    9.327   5.385   4.924
   7 C    6.995  -6.731   4.924
   8 C    9.327  -2.692   4.924
   9 C   11.658   1.346   4.924
  10 C    2.332  -1.346   4.924
  11 C    4.663   2.692   4.924
  12 C    6.995   6.731   4.924
  13 C    6.995  -1.346   4.924
  14 C    9.327   2.692   4.924
  15 C    6.995  -9.423   4.924
  16 C    9.327  -5.385   4.924
  17 C   11.658  -1.346   4.924
 INFORMATION **** SET_MPP **** PCRYSTAL CALCULATION
 INFORMATION **** READM2 **** NEW DEFAULT: FOCK/KS MATRIX MIXING SET TO 30 %
 INFORMATION **** READM2 **** NEW DEFAULT: FULL DIRECT SCF MODE
 INFORMATION **** READM2 **** NEW DEFAULT: COULOMB BIPOLAR BUFFER SET TO 32 Mb
 INFORMATION **** READM2 **** NEW DEFAULT: EXCHANGE BIPOLAR BUFFER SET TO 32 Mb

 *******************************************************************************
 NEW DEFAULT: DFT INTEGRATION GRID INCREASED TO XLGRID
 NEW DEFAULT: DIIS ACCELERATOR ACTIVE
 USE KEYWORD NODIIS TO TURN IT OFF
 *******************************************************************************

 INFORMATION **** TOLINTEG **** COULOMB AND EXCHANGE SERIES TOLERANCES MODIFIED
 INFORMATION **** READM2 **** FULL DIRECT SCF (MONO AND BIEL INT) SELECTED
 INFORMATION **** MAXCYCLE **** MAX NUMBER OF SCF CYCLES SET TO         200
 INFORMATION **** TOLDEE **** SCF TOL ON TOTAL ENERGY SET TO           9
 *******************************************************************************
 N. OF ATOMS PER CELL        17  COULOMB OVERLAP TOL         (T1) 10**   -8
 NUMBER OF SHELLS           136  COULOMB PENETRATION TOL     (T2) 10**   -8
 NUMBER OF AO               306  EXCHANGE OVERLAP TOL        (T3) 10**   20
 N. OF ELECTRONS PER CELL   102  EXCHANGE PSEUDO OVP (F(G))  (T4) 10**   20
 CORE ELECTRONS PER CELL     34  EXCHANGE PSEUDO OVP (P(G))  (T5) 10**   20
 N. OF SYMMETRY OPERATORS     1  POLE ORDER IN MONO ZONE                  4
 *******************************************************************************
 TYPE OF CALCULATION :  RESTRICTED CLOSED SHELL
 KOHN-SHAM HAMILTONIAN

 (EXCHANGE)[CORRELATION] FUNCTIONAL:(PERDEW-BURKE-ERNZERHOF)[PERDEW-BURKE-ERNZERHOF]


 CAPPA:IS1  8;IS2  8;IS3  8; K PTS MONK NET 260; SYMMOPS:K SPACE   2;G SPACE   1

 *******************************************************************************
 MAX NUMBER OF SCF CYCLES     200  CONVERGENCE ON DELTAP        10**-19
 WEIGHT OF F(I) IN F(I+1)      30% CONVERGENCE ON ENERGY        10**- 9
 SHRINK. FACT.(MONKH.)    8  8  8  NUMBER OF K POINTS IN THE IBZ    260
 SHRINKING FACTOR(GILAT NET)   16  NUMBER OF K POINTS(GILAT NET)   2052
 *******************************************************************************
 *** K POINTS COORDINATES (OBLIQUE COORDINATES IN UNITS OF IS =  8)
   1-R(  0  0  0)   2-C(  1  0  0)   3-C(  2  0  0)   4-C(  3  0  0)
   5-R(  4  0  0)   6-C(  0  1  0)   7-C(  1  1  0)   8-C(  2  1  0)
   9-C(  3  1  0)  10-C(  4  1  0)  11-C(  5  1  0)  12-C(  6  1  0)
  13-C(  7  1  0)  14-C(  0  2  0)  15-C(  1  2  0)  16-C(  2  2  0)
  17-C(  3  2  0)  18-C(  4  2  0)  19-C(  5  2  0)  20-C(  6  2  0)
  21-C(  7  2  0)  22-C(  0  3  0)  23-C(  1  3  0)  24-C(  2  3  0)
  25-C(  3  3  0)  26-C(  4  3  0)  27-C(  5  3  0)  28-C(  6  3  0)
  29-C(  7  3  0)  30-R(  0  4  0)  31-C(  1  4  0)  32-C(  2  4  0)
  33-C(  3  4  0)  34-R(  4  4  0)  35-C(  0  0  1)  36-C(  1  0  1)
  37-C(  2  0  1)  38-C(  3  0  1)  39-C(  4  0  1)  40-C(  5  0  1)
  41-C(  6  0  1)  42-C(  7  0  1)  43-C(  0  1  1)  44-C(  1  1  1)
  45-C(  2  1  1)  46-C(  3  1  1)  47-C(  4  1  1)  48-C(  5  1  1)
  49-C(  6  1  1)  50-C(  7  1  1)  51-C(  0  2  1)  52-C(  1  2  1)
  53-C(  2  2  1)  54-C(  3  2  1)  55-C(  4  2  1)  56-C(  5  2  1)
  57-C(  6  2  1)  58-C(  7  2  1)  59-C(  0  3  1)  60-C(  1  3  1)
  61-C(  2  3  1)  62-C(  3  3  1)  63-C(  4  3  1)  64-C(  5  3  1)
  65-C(  6  3  1)  66-C(  7  3  1)  67-C(  0  4  1)  68-C(  1  4  1)
  69-C(  2  4  1)  70-C(  3  4  1)  71-C(  4  4  1)  72-C(  5  4  1)
  73-C(  6  4  1)  74-C(  7  4  1)  75-C(  0  5  1)  76-C(  1  5  1)
  77-C(  2  5  1)  78-C(  3  5  1)  79-C(  4  5  1)  80-C(  5  5  1)
  81-C(  6  5  1)  82-C(  7  5  1)  83-C(  0  6  1)  84-C(  1  6  1)
  85-C(  2  6  1)  86-C(  3  6  1)  87-C(  4  6  1)  88-C(  5  6  1)
  89-C(  6  6  1)  90-C(  7  6  1)  91-C(  0  7  1)  92-C(  1  7  1)
  93-C(  2  7  1)  94-C(  3  7  1)  95-C(  4  7  1)  96-C(  5  7  1)
  97-C(  6  7  1)  98-C(  7  7  1)  99-C(  0  0  2) 100-C(  1  0  2)
 101-C(  2  0  2) 102-C(  3  0  2) 103-C(  4  0  2) 104-C(  5  0  2)
 105-C(  6  0  2) 106-C(  7  0  2) 107-C(  0  1  2) 108-C(  1  1  2)
 109-C(  2  1  2) 110-C(  3  1  2) 111-C(  4  1  2) 112-C(  5  1  2)
 113-C(  6  1  2) 114-C(  7  1  2) 115-C(  0  2  2) 116-C(  1  2  2)
 117-C(  2  2  2) 118-C(  3  2  2) 119-C(  4  2  2) 120-C(  5  2  2)
 121-C(  6  2  2) 122-C(  7  2  2) 123-C(  0  3  2) 124-C(  1  3  2)
 125-C(  2  3  2) 126-C(  3  3  2) 127-C(  4  3  2) 128-C(  5  3  2)
 129-C(  6  3  2) 130-C(  7  3  2) 131-C(  0  4  2) 132-C(  1  4  2)
 133-C(  2  4  2) 134-C(  3  4  2) 135-C(  4  4  2) 136-C(  5  4  2)
 137-C(  6  4  2) 138-C(  7  4  2) 139-C(  0  5  2) 140-C(  1  5  2)
 141-C(  2  5  2) 142-C(  3  5  2) 143-C(  4  5  2) 144-C(  5  5  2)
 145-C(  6  5  2) 146-C(  7  5  2) 147-C(  0  6  2) 148-C(  1  6  2)
 149-C(  2  6  2) 150-C(  3  6  2) 151-C(  4  6  2) 152-C(  5  6  2)
 153-C(  6  6  2) 154-C(  7  6  2) 155-C(  0  7  2) 156-C(  1  7  2)
 157-C(  2  7  2) 158-C(  3  7  2) 159-C(  4  7  2) 160-C(  5  7  2)
 161-C(  6  7  2) 162-C(  7  7  2) 163-C(  0  0  3) 164-C(  1  0  3)
 165-C(  2  0  3) 166-C(  3  0  3) 167-C(  4  0  3) 168-C(  5  0  3)
 169-C(  6  0  3) 170-C(  7  0  3) 171-C(  0  1  3) 172-C(  1  1  3)
 173-C(  2  1  3) 174-C(  3  1  3) 175-C(  4  1  3) 176-C(  5  1  3)
 177-C(  6  1  3) 178-C(  7  1  3) 179-C(  0  2  3) 180-C(  1  2  3)
 181-C(  2  2  3) 182-C(  3  2  3) 183-C(  4  2  3) 184-C(  5  2  3)
 185-C(  6  2  3) 186-C(  7  2  3) 187-C(  0  3  3) 188-C(  1  3  3)
 189-C(  2  3  3) 190-C(  3  3  3) 191-C(  4  3  3) 192-C(  5  3  3)
 193-C(  6  3  3) 194-C(  7  3  3) 195-C(  0  4  3) 196-C(  1  4  3)
 197-C(  2  4  3) 198-C(  3  4  3) 199-C(  4  4  3) 200-C(  5  4  3)
 201-C(  6  4  3) 202-C(  7  4  3) 203-C(  0  5  3) 204-C(  1  5  3)
 205-C(  2  5  3) 206-C(  3  5  3) 207-C(  4  5  3) 208-C(  5  5  3)
 209-C(  6  5  3) 210-C(  7  5  3) 211-C(  0  6  3) 212-C(  1  6  3)
 213-C(  2  6  3) 214-C(  3  6  3) 215-C(  4  6  3) 216-C(  5  6  3)
 217-C(  6  6  3) 218-C(  7  6  3) 219-C(  0  7  3) 220-C(  1  7  3)
 221-C(  2  7  3) 222-C(  3  7  3) 223-C(  4  7  3) 224-C(  5  7  3)
 225-C(  6  7  3) 226-C(  7  7  3) 227-R(  0  0  4) 228-C(  1  0  4)
 229-C(  2  0  4) 230-C(  3  0  4) 231-R(  4  0  4) 232-C(  0  1  4)
 233-C(  1  1  4) 234-C(  2  1  4) 235-C(  3  1  4) 236-C(  4  1  4)
 237-C(  5  1  4) 238-C(  6  1  4) 239-C(  7  1  4) 240-C(  0  2  4)
 241-C(  1  2  4) 242-C(  2  2  4) 243-C(  3  2  4) 244-C(  4  2  4)
 245-C(  5  2  4) 246-C(  6  2  4) 247-C(  7  2  4) 248-C(  0  3  4)
 249-C(  1  3  4) 250-C(  2  3  4) 251-C(  3  3  4) 252-C(  4  3  4)
 253-C(  5  3  4) 254-C(  6  3  4) 255-C(  7  3  4) 256-R(  0  4  4)
 257-C(  1  4  4) 258-C(  2  4  4) 259-C(  3  4  4) 260-R(  4  4  4)

 DIRECT LATTICE VECTORS COMPON. (A.U.)     RECIP. LATTICE VECTORS COMPON. (A.U.) 
        X            Y            Z              X            Y            Z
    6.9949842  -12.1156680    0.0000000      0.4491208   -0.2593000    0.0000000
    6.9949842   12.1156680    0.0000000      0.4491208    0.2593000   -0.0000000
    0.0000000    0.0000000   16.4123433     -0.0000000    0.0000000    0.3828329

 DISK SPACE FOR EIGENVECTORS (FTN 10)    47941632 REALS

 SYMMETRY ADAPTION OF THE BLOCH FUNCTIONS DISABLED
 TTTTTTTTTTTTTTTTTTTTTTTTTTTTTT gordsh1     TELAPSE        2.58 TCPU        1.03

 MATRIX SIZE: P(G)  142398, F(G)   71403, P(G) IRR   71726, F(G) IRR   71726
 MAX G-VECTOR INDEX FOR 1- AND 2-ELECTRON INTEGRALS  27

 TTTTTTTTTTTTTTTTTTTTTTTTTTTTTT INPUT       TELAPSE        2.58 TCPU        1.03

 NEIGHBORS OF THE NON-EQUIVALENT ATOMS

 N = NUMBER OF NEIGHBORS AT DISTANCE R
    ATOM  N     R/ANG      R/AU   NEIGHBORS (ATOM LABELS AND CELL INDICES)
   1 C    3     1.4247     2.6924   10 C    0 0 0   11 C    0 0 0   15 C   -1 0 0
   1 C    6     2.4677     4.6633    2 C    0 0 0    3 C    0-1 0    4 C    0 0 0
                                     5 C    0 0 0    7 C   -1 0 0    9 C   -1-1 0
   1 C    3     2.8495     5.3847   13 C    0 0 0   16 C   -1 0 0   17 C   -1-1 0
   1 C    4     3.7695     7.1233   12 C    0 0 0   12 C    0-1 0   14 C    0 0 0
                                    14 C   -1-1 0
   1 C    6     4.2742     8.0771    6 C    0 0 0    6 C   -1-1 0    6 C    0-1 0
                                     8 C    0 0 0    8 C   -1-1 0    8 C   -1 0 0
   1 C    6     4.9354     9.3266    2 C    0-1 0    3 C    0 0 0    4 C   -1 0 0
                                     5 C   -1-1 0    7 C    0 0 0    9 C    0 0 0

   2 C    3     1.4247     2.6924   11 C    0 0 0   12 C    0 0 0   16 C   -1 0 0
   2 C    6     2.4677     4.6633    1 C    0 0 0    3 C    0 0 0    5 C    0 0 0
                                     6 C    0 0 0    7 C   -1 0 0    8 C   -1 0 0
   2 C    3     2.8495     5.3847   14 C    0 0 0   15 C   -1 0 0   17 C   -1 0 0
   2 C    4     3.7695     7.1233   10 C    0 0 0   10 C    0 1 0   13 C    0 0 0
                                    13 C   -1 0 0
   2 C    6     4.2742     8.0771    4 C    0 0 0    4 C   -1 0 0    4 C    0 1 0
                                     9 C    0 0 0    9 C   -1-1 0    9 C   -1 0 0
   2 C    6     4.9354     9.3266    1 C    0 1 0    3 C    0-1 0    5 C   -1 0 0
                                     6 C   -1-1 0    7 C    0 1 0    8 C    0 0 0

   3 C    3     1.4247     2.6924   10 C    0 1 0   12 C    0 0 0   17 C   -1 0 0
   3 C    6     2.4677     4.6633    1 C    0 1 0    2 C    0 0 0    4 C    0 1 0
                                     6 C    0 0 0    8 C   -1 0 0    9 C   -1 0 0
   3 C    2     2.8495     5.3847   15 C   -1 1 0   16 C   -1 0 0
   3 C    6     3.7695     7.1233   11 C    0 0 0   11 C    0 1 0   13 C   -1 0 0
                                    13 C    0 1 0   14 C    0 0 0   14 C   -1 0 0
   3 C    6     4.2742     8.0771    5 C    0 0 0    5 C   -1 0 0    5 C    0 1 0
                                     7 C   -1 0 0    7 C    0 1 0    7 C   -1 1 0
   3 C    6     4.9354     9.3266    1 C    0 0 0    2 C    0 1 0    4 C   -1 0 0
                                     6 C   -1 0 0    8 C    0 1 0    9 C    0 0 0

   4 C    2     1.4247     2.6924   10 C    0 0 0   13 C    0 0 0
   4 C    6     2.4677     4.6633    1 C    0 0 0    3 C    0-1 0    5 C    0 0 0
                                     6 C    0-1 0    7 C    0 0 0    8 C    0 0 0
   4 C    3     2.8495     5.3847   11 C    0 0 0   12 C    0-1 0   16 C    0 0 0
   4 C    6     3.7695     7.1233   14 C    0 0 0   14 C    0-1 0   15 C    0 0 0
                                    15 C   -1 0 0   17 C    0 0 0   17 C   -1-1 0
   4 C    6     4.2742     8.0771    2 C    0 0 0    2 C    1 0 0    2 C    0-1 0
                                     9 C    0 0 0    9 C   -1-1 0    9 C    0-1 0
   4 C    6     4.9354     9.3266    1 C    1 0 0    3 C    1 0 0    5 C    0-1 0
                                     6 C    0 0 0    7 C   -1 0 0    8 C   -1-1 0

   5 C    3     1.4247     2.6924   11 C    0 0 0   13 C    0 0 0   14 C    0 0 0
   5 C    6     2.4677     4.6633    1 C    0 0 0    2 C    0 0 0    4 C    0 0 0
                                     6 C    0 0 0    8 C    0 0 0    9 C    0 0 0
   5 C    3     2.8495     5.3847   10 C    0 0 0   12 C    0 0 0   17 C    0 0 0
   5 C    4     3.7695     7.1233   15 C   -1 0 0   15 C    0 1 0   16 C    0 0 0
                                    16 C   -1 0 0
   5 C    6     4.2742     8.0771    3 C    0 0 0    3 C    1 0 0    3 C    0-1 0
                                     7 C    0 0 0    7 C   -1 0 0    7 C    0 1 0
   5 C    6     4.9354     9.3266    1 C    1 1 0    2 C    1 0 0    4 C    0 1 0
                                     6 C    0-1 0    8 C   -1 0 0    9 C   -1-1 0

   6 C    2     1.4247     2.6924   12 C    0 0 0   14 C    0 0 0
   6 C    6     2.4677     4.6633    2 C    0 0 0    3 C    0 0 0    4 C    0 1 0
                                     5 C    0 0 0    7 C    0 1 0    9 C    0 0 0
   6 C    3     2.8495     5.3847   10 C    0 1 0   11 C    0 0 0   15 C    0 1 0
   6 C    6     3.7695     7.1233   13 C    0 0 0   13 C    0 1 0   16 C   -1 0 0
                                    16 C    0 1 0   17 C    0 0 0   17 C   -1 0 0
   6 C    6     4.2742     8.0771    1 C    0 0 0    1 C    1 1 0    1 C    0 1 0
                                     8 C    0 0 0    8 C   -1 0 0    8 C    0 1 0
   6 C    6     4.9354     9.3266    2 C    1 1 0    3 C    1 0 0    4 C    0 0 0
                                     5 C    0 1 0    7 C   -1 0 0    9 C   -1 0 0

   7 C    2     1.4247     2.6924   15 C    0 0 0   16 C    0 0 0
   7 C    6     2.4677     4.6633    1 C    1 0 0    2 C    1 0 0    4 C    0 0 0
                                     6 C    0-1 0    8 C    0 0 0    9 C    0-1 0
   7 C    3     2.8495     5.3847   11 C    1 0 0   13 C    0 0 0   14 C    0-1 0
   7 C    6     3.7695     7.1233   10 C    0 0 0   10 C    1 0 0   12 C    1 0 0
                                    12 C    0-1 0   17 C    0 0 0   17 C    0-1 0
   7 C    6     4.2742     8.0771    3 C    1 0 0    3 C    0-1 0    3 C    1-1 0
                                     5 C    0 0 0    5 C    1 0 0    5 C    0-1 0
   7 C    6     4.9354     9.3266    1 C    0 0 0    2 C    0-1 0    4 C    1 0 0
                                     6 C    1 0 0    8 C    0-1 0    9 C    0 0 0

   8 C    3     1.4247     2.6924   13 C    0 0 0   16 C    0 0 0   17 C    0 0 0
   8 C    6     2.4677     4.6633    2 C    1 0 0    3 C    1 0 0    4 C    0 0 0
                                     5 C    0 0 0    7 C    0 0 0    9 C    0 0 0
   8 C    2     2.8495     5.3847   12 C    1 0 0   14 C    0 0 0
   8 C    6     3.7695     7.1233   10 C    0 0 0   10 C    1 1 0   11 C    0 0 0
                                    11 C    1 0 0   15 C    0 0 0   15 C    0 1 0
   8 C    6     4.2742     8.0771    1 C    0 0 0    1 C    1 1 0    1 C    1 0 0
                                     6 C    0 0 0    6 C    1 0 0    6 C    0-1 0
   8 C    6     4.9354     9.3266    2 C    0 0 0    3 C    0-1 0    4 C    1 1 0
                                     5 C    1 0 0    7 C    0 1 0    9 C    0-1 0

   9 C    3     1.4247     2.6924   14 C    0 0 0   15 C    0 1 0   17 C    0 0 0
   9 C    6     2.4677     4.6633    1 C    1 1 0    3 C    1 0 0    5 C    0 0 0
                                     6 C    0 0 0    7 C    0 1 0    8 C    0 0 0
   9 C    2     2.8495     5.3847   10 C    1 1 0   13 C    0 0 0
   9 C    6     3.7695     7.1233   11 C    0 0 0   11 C    1 1 0   12 C    0 0 0
                                    12 C    1 0 0   16 C    0 0 0   16 C    0 1 0
   9 C    6     4.2742     8.0771    2 C    0 0 0    2 C    1 1 0    2 C    1 0 0
                                     4 C    0 0 0    4 C    1 1 0    4 C    0 1 0
   9 C    6     4.9354     9.3266    1 C    0 0 0    3 C    0 0 0    5 C    1 1 0
                                     6 C    1 0 0    7 C    0 0 0    8 C    0 1 0

  10 C    3     1.4247     2.6924    1 C    0 0 0    3 C    0-1 0    4 C    0 0 0
  10 C    5     2.4677     4.6633   11 C    0 0 0   12 C    0-1 0   13 C    0 0 0
                                    15 C   -1 0 0   17 C   -1-1 0
  10 C    3     2.8495     5.3847    5 C    0 0 0    6 C    0-1 0    9 C   -1-1 0
  10 C    6     3.7695     7.1233    2 C    0 0 0    2 C    0-1 0    7 C    0 0 0
                                     7 C   -1 0 0    8 C    0 0 0    8 C   -1-1 0
  10 C    6     4.2742     8.0771   14 C    0 0 0   14 C   -1-1 0   14 C    0-1 0
                                    16 C    0 0 0   16 C   -1-1 0   16 C   -1 0 0
  10 C    5     4.9354     9.3266   11 C    0-1 0   12 C    0 0 0   13 C   -1-1 0
                                    15 C    0 0 0   17 C    0 0 0

  11 C    3     1.4247     2.6924    1 C    0 0 0    2 C    0 0 0    5 C    0 0 0
  11 C    6     2.4677     4.6633   10 C    0 0 0   12 C    0 0 0   13 C    0 0 0
                                    14 C    0 0 0   15 C   -1 0 0   16 C   -1 0 0
  11 C    3     2.8495     5.3847    4 C    0 0 0    6 C    0 0 0    7 C   -1 0 0
  11 C    6     3.7695     7.1233    3 C    0 0 0    3 C    0-1 0    8 C    0 0 0
                                     8 C   -1 0 0    9 C    0 0 0    9 C   -1-1 0
  11 C    3     4.2742     8.0771   17 C    0 0 0   17 C   -1-1 0   17 C   -1 0 0
  11 C    6     4.9354     9.3266   10 C    0 1 0   12 C    0-1 0   13 C   -1 0 0
                                    14 C   -1-1 0   15 C    0 1 0   16 C    0 0 0

  12 C    3     1.4247     2.6924    2 C    0 0 0    3 C    0 0 0    6 C    0 0 0
  12 C    5     2.4677     4.6633   10 C    0 1 0   11 C    0 0 0   14 C    0 0 0
                                    16 C   -1 0 0   17 C   -1 0 0
  12 C    3     2.8495     5.3847    4 C    0 1 0    5 C    0 0 0    8 C   -1 0 0
  12 C    6     3.7695     7.1233    1 C    0 0 0    1 C    0 1 0    7 C   -1 0 0
                                     7 C    0 1 0    9 C    0 0 0    9 C   -1 0 0
  12 C    6     4.2742     8.0771   13 C    0 0 0   13 C   -1 0 0   13 C    0 1 0
                                    15 C   -1 0 0   15 C    0 1 0   15 C   -1 1 0
  12 C    5     4.9354     9.3266   10 C    0 0 0   11 C    0 1 0   14 C   -1 0 0
                                    16 C    0 1 0   17 C    0 0 0

  13 C    3     1.4247     2.6924    4 C    0 0 0    5 C    0 0 0    8 C    0 0 0
  13 C    5     2.4677     4.6633   10 C    0 0 0   11 C    0 0 0   14 C    0 0 0
                                    16 C    0 0 0   17 C    0 0 0
  13 C    3     2.8495     5.3847    1 C    0 0 0    7 C    0 0 0    9 C    0 0 0
  13 C    6     3.7695     7.1233    2 C    0 0 0    2 C    1 0 0    3 C    1 0 0
                                     3 C    0-1 0    6 C    0 0 0    6 C    0-1 0
  13 C    6     4.2742     8.0771   12 C    0 0 0   12 C    1 0 0   12 C    0-1 0
                                    15 C    0 0 0   15 C   -1 0 0   15 C    0 1 0
  13 C    5     4.9354     9.3266   10 C    1 1 0   11 C    1 0 0   14 C    0-1 0
                                    16 C   -1 0 0   17 C   -1-1 0

  14 C    3     1.4247     2.6924    5 C    0 0 0    6 C    0 0 0    9 C    0 0 0
  14 C    5     2.4677     4.6633   11 C    0 0 0   12 C    0 0 0   13 C    0 0 0
                                    15 C    0 1 0   17 C    0 0 0
  14 C    3     2.8495     5.3847    2 C    0 0 0    7 C    0 1 0    8 C    0 0 0
  14 C    6     3.7695     7.1233    1 C    0 0 0    1 C    1 1 0    3 C    0 0 0
                                     3 C    1 0 0    4 C    0 0 0    4 C    0 1 0
  14 C    6     4.2742     8.0771   10 C    0 0 0   10 C    1 1 0   10 C    0 1 0
                                    16 C    0 0 0   16 C   -1 0 0   16 C    0 1 0
  14 C    5     4.9354     9.3266   11 C    1 1 0   12 C    1 0 0   13 C    0 1 0
                                    15 C   -1 0 0   17 C   -1 0 0

  15 C    3     1.4247     2.6924    1 C    1 0 0    7 C    0 0 0    9 C    0-1 0
  15 C    5     2.4677     4.6633   10 C    1 0 0   11 C    1 0 0   14 C    0-1 0
                                    16 C    0 0 0   17 C    0-1 0
  15 C    3     2.8495     5.3847    2 C    1 0 0    3 C    1-1 0    6 C    0-1 0
  15 C    6     3.7695     7.1233    4 C    0 0 0    4 C    1 0 0    5 C    1 0 0
                                     5 C    0-1 0    8 C    0 0 0    8 C    0-1 0
  15 C    6     4.2742     8.0771   12 C    1 0 0   12 C    0-1 0   12 C    1-1 0
                                    13 C    0 0 0   13 C    1 0 0   13 C    0-1 0
  15 C    5     4.9354     9.3266   10 C    0 0 0   11 C    0-1 0   14 C    1 0 0
                                    16 C    0-1 0   17 C    0 0 0

  16 C    3     1.4247     2.6924    2 C    1 0 0    7 C    0 0 0    8 C    0 0 0
  16 C    5     2.4677     4.6633   11 C    1 0 0   12 C    1 0 0   13 C    0 0 0
                                    15 C    0 0 0   17 C    0 0 0
  16 C    3     2.8495     5.3847    1 C    1 0 0    3 C    1 0 0    4 C    0 0 0
  16 C    6     3.7695     7.1233    5 C    0 0 0    5 C    1 0 0    6 C    1 0 0
                                     6 C    0-1 0    9 C    0 0 0    9 C    0-1 0
  16 C    6     4.2742     8.0771   10 C    0 0 0   10 C    1 1 0   10 C    1 0 0
                                    14 C    0 0 0   14 C    1 0 0   14 C    0-1 0
  16 C    5     4.9354     9.3266   11 C    0 0 0   12 C    0-1 0   13 C    1 0 0
                                    15 C    0 1 0   17 C    0-1 0

  17 C    3     1.4247     2.6924    3 C    1 0 0    8 C    0 0 0    9 C    0 0 0
  17 C    6     2.4677     4.6633   10 C    1 1 0   12 C    1 0 0   13 C    0 0 0
                                    14 C    0 0 0   15 C    0 1 0   16 C    0 0 0
  17 C    3     2.8495     5.3847    1 C    1 1 0    2 C    1 0 0    5 C    0 0 0
  17 C    6     3.7695     7.1233    4 C    0 0 0    4 C    1 1 0    6 C    0 0 0
                                     6 C    1 0 0    7 C    0 0 0    7 C    0 1 0
  17 C    3     4.2742     8.0771   11 C    0 0 0   11 C    1 1 0   11 C    1 0 0
  17 C    6     4.9354     9.3266   10 C    0 0 0   12 C    0 0 0   13 C    1 1 0
                                    14 C    1 0 0   15 C    0 0 0   16 C    0 1 0


 SYMMETRY ALLOWED INTERNAL DEGREE(S) OF FREEDOM:  48
 TTTTTTTTTTTTTTTTTTTTTTTTTTTTTT SYMM        TELAPSE        2.59 TCPU        1.04
 TTTTTTTTTTTTTTTTTTTTTTTTTTTTTT INT_SCREEN  TELAPSE        2.59 TCPU        1.04

 *******************************************************************************
 *                             OPTIMIZATION STARTS                             *
 *******************************************************************************
 RECLASIFICATION OF INDICES FOR INTEGRAL CALC ACCORDING TO DIFFERENT CRITERIA:
           FIXDELTE                  FIXDELTX              FIXDELTN
          0.10000000               0.80000000                 48
 DEFAULT MAX NUM OF POINTS  100
 *******************************************************************************

 *******************************************************************************
 COORDINATE OPTIMIZATION - POINT    1
 INFORMATION **** EXCBUF **** EXCH. BIPO BUFFER: WORDS USED =           0

 DFT PARAMETERS

     ATOM       ELECTRONS   NET CHARGE   R(ANGSTROM)
   1   6  C       6.0000      0.0000     0.77000000

 SIZE OF GRID=     558265
 TTTTTTTTTTTTTTTTTTTTTTTTTTTTTT MAKE_GRID2  TELAPSE        3.07 TCPU        1.52
 BECKE WEIGHT FUNCTION
 RADSAFE =     2.00
 TOLERANCES - DENSITY:10**- 6; POTENTIAL:10**- 9; GRID WGT:10**-14

 RADIAL INTEGRATION  - INTERVALS (POINTS,UPPER LIMIT):            1( 75,  4.0*R)

 ANGULAR INTEGRATION - INTERVALS (ACCURACY LEVEL [N. POINTS] UPPER LIMIT):
  1(  4[  86]   0.2)  2(  8[ 194]   0.5)  3( 12[ 350]   0.9)  4( 16[ 974]   3.5)
  5( 12[ 350]9999.0)
 TTTTTTTTTTTTTTTTTTTTTTTTTTTTTT INT_CALC    TELAPSE        3.10 TCPU        1.55

 *******************************************************************************
 Final                                                                           
 CRYSTAL - SCF - TYPE OF CALCULATION :  RESTRICTED CLOSED SHELL
 *******************************************************************************

 CAPPA:IS1  8;IS2  8;IS3  8; K PTS MONK NET 260; SYMMOPS:K SPACE   2;G SPACE   1

 TTTTTTTTTTTTTTTTTTTTTTTTTTTTTT SDIK        TELAPSE        3.17 TCPU        1.62

 AAAAAAAAAAAAAAAAAAAAAAAAAAAAAAAAAAAAAAAAAAAAAAAAAAAAAAAAAAAAAAAAAAAAAAAAAAAAAAA
         ATOMIC WAVEFUNCTION(S)


 NUCLEAR CHARGE  6.0  SYMMETRY SPECIES            S    P
 N. ELECTRONS    6.0  NUMBER OF PRIMITIVE GTOS   10    6
                      NUMBER OF CONTRACTED GTOS   4    3
                      NUMBER OF CLOSED SHELLS     2    0
                      OPEN SHELL OCCUPATION       0    2

  ZNUC SCFIT  TOTAL HF ENERGY   KINETIC ENERGY   VIRIAL THEOREM ACCURACY
   6.0  10   -3.768111494E+01  3.771190961E+01 -1.999183423E+00  3.4E-06

 AAAAAAAAAAAAAAAAAAAAAAAAAAAAAAAAAAAAAAAAAAAAAAAAAAAAAAAAAAAAAAAAAAAAAAAAAAAAAAA

 CHARGE NORMALIZATION FACTOR   1.00000000
 TOTAL ATOMIC CHARGES:
   6.0000000   6.0000000   6.0000000   6.0000000   6.0000000   6.0000000
   6.0000000   6.0000000   6.0000000   6.0000000   6.0000000   6.0000000
   6.0000000   6.0000000   6.0000000   6.0000000   6.0000000
 TTTTTTTTTTTTTTTTTTTTTTTTTTTTTT MOQGAD      TELAPSE        3.19 TCPU        1.64
 TTTTTTTTTTTTTTTTTTTTTTTTTTTTTT SHELLXN     TELAPSE        4.17 TCPU        2.62
 TTTTTTTTTTTTTTTTTTTTTTTTTTTTTT MONMO3      TELAPSE        4.31 TCPU        2.76
 NUMERICALLY INTEGRATED DENSITY    101.9998096860
 TTTTTTTTTTTTTTTTTTTTTTTTTTTTTT NUMDFT      TELAPSE        4.51 TCPU        2.96
 CYC   0 ETOT(AU) -6.515472853096E+02 DETOT -6.52E+02 tst  0.00E+00 PX  1.00E+00
 TTTTTTTTTTTTTTTTTTTTTTTTTTTTTT DIIS        TELAPSE        4.53 TCPU        2.97
 TTTTTTTTTTTTTTTTTTTTTTTTTTTTTT FDIK        TELAPSE        4.74 TCPU        3.18
 POSSIBLY CONDUCTING STATE - EFERMI(AU) -2.2951898E-01 (RES. CHARGE  2.34E-13;IT. 18)
 TTTTTTTTTTTTTTTTTTTTTTTTTTTTTT PDIG        TELAPSE        4.85 TCPU        3.29
 CHARGE NORMALIZATION FACTOR   1.00000000
 TOTAL ATOMIC CHARGES:
   5.9979030   5.9970846   6.1128844   5.7809774   5.9979065   5.7831664
   5.7831600   6.1128842   6.1120557   6.0527948   5.9950231   6.0528745
   6.0527973   6.0528142   6.0528181   6.0528823   6.0099735
 TTTTTTTTTTTTTTTTTTTTTTTTTTTTTT MOQGAD      TELAPSE        4.85 TCPU        3.29
 TTTTTTTTTTTTTTTTTTTTTTTTTTTTTT SHELLXN     TELAPSE        5.99 TCPU        4.43
 TTTTTTTTTTTTTTTTTTTTTTTTTTTTTT MONMO3      TELAPSE        6.14 TCPU        4.58
 NUMERICALLY INTEGRATED DENSITY    101.9998625868
 TTTTTTTTTTTTTTTTTTTTTTTTTTTTTT NUMDFT      TELAPSE        6.49 TCPU        4.93
 CYC   1 ETOT(AU) -6.468901993756E+02 DETOT  4.66E+00 tst  0.00E+00 PX  1.00E+00
 TTTTTTTTTTTTTTTTTTTTTTTTTTTTTT DIIS        TELAPSE        6.51 TCPU        4.95
 DIIS TEST: 0.10572E+01 AT SCF   CYCLE   1 - MIX   30 %
 TTTTTTTTTTTTTTTTTTTTTTTTTTTTTT FDIK        TELAPSE        6.73 TCPU        5.17
 POSSIBLY CONDUCTING STATE - EFERMI(AU) -2.0005710E-01 (RES. CHARGE  1.80E-12;IT. 14)
 TTTTTTTTTTTTTTTTTTTTTTTTTTTTTT PDIG        TELAPSE        6.85 TCPU        5.29
 CHARGE NORMALIZATION FACTOR   1.00000000
 TOTAL ATOMIC CHARGES:
   5.9025372   5.9034170   5.6386598   6.9428999   5.9025413   6.9334642
   6.9334594   5.6386597   5.6394765   5.8194647   5.8155513   5.8187946
   5.8194666   5.8193026   5.8193069   5.8188029   5.8341952
 TTTTTTTTTTTTTTTTTTTTTTTTTTTTTT MOQGAD      TELAPSE        6.85 TCPU        5.29
 TTTTTTTTTTTTTTTTTTTTTTTTTTTTTT SHELLXN     TELAPSE        7.99 TCPU        6.42
 TTTTTTTTTTTTTTTTTTTTTTTTTTTTTT MONMO3      TELAPSE        8.14 TCPU        6.57
 NUMERICALLY INTEGRATED DENSITY    101.9998441667
 TTTTTTTTTTTTTTTTTTTTTTTTTTTTTT NUMDFT      TELAPSE        8.61 TCPU        7.04
 CYC   2 ETOT(AU) -6.462330425815E+02 DETOT  6.57E-01 tst  1.20E-02 PX  3.30E-01
 TTTTTTTTTTTTTTTTTTTTTTTTTTTTTT DIIS        TELAPSE        8.64 TCPU        7.07
 DIIS TEST: 0.81408E+01 AT SCF   CYCLE   2 - DIIS ACTIVE - HISTORY:     2 CYCLES
 TTTTTTTTTTTTTTTTTTTTTTTTTTTTTT FDIK        TELAPSE        8.86 TCPU        7.29
 POSSIBLY CONDUCTING STATE - EFERMI(AU) -1.3321962E-01 (RES. CHARGE  5.66E-12;IT. 12)
 TTTTTTTTTTTTTTTTTTTTTTTTTTTTTT PDIG        TELAPSE        8.98 TCPU        7.41
 CHARGE NORMALIZATION FACTOR   1.00000000
 TOTAL ATOMIC CHARGES:
   6.0716208   6.0722427   6.0875608   5.9348599   6.0716248   5.9418714
   5.9418639   6.0875606   6.0881621   5.9476706   5.9520224   5.9482797
   5.9476732   5.9479962   5.9480008   5.9482888   6.0627016
 TTTTTTTTTTTTTTTTTTTTTTTTTTTTTT MOQGAD      TELAPSE        8.98 TCPU        7.41
 TTTTTTTTTTTTTTTTTTTTTTTTTTTTTT SHELLXN     TELAPSE       10.13 TCPU        8.56
 TTTTTTTTTTTTTTTTTTTTTTTTTTTTTT MONMO3      TELAPSE       10.27 TCPU        8.70
 NUMERICALLY INTEGRATED DENSITY    101.9998224993
 TTTTTTTTTTTTTTTTTTTTTTTTTTTTTT NUMDFT      TELAPSE       10.62 TCPU        9.05
 CYC   3 ETOT(AU) -6.470135234943E+02 DETOT -7.80E-01 tst  7.21E-03 PX  3.00E-01
 TTTTTTTTTTTTTTTTTTTTTTTTTTTTTT DIIS        TELAPSE       10.63 TCPU        9.07
 DIIS TEST: 0.23928E+00 AT SCF   CYCLE   3 - DIIS ACTIVE - HISTORY:     3 CYCLES
 TTTTTTTTTTTTTTTTTTTTTTTTTTTTTT FDIK        TELAPSE       10.88 TCPU        9.31
 POSSIBLY CONDUCTING STATE - EFERMI(AU) -1.6978298E-01 (RES. CHARGE  1.99E-13;IT. 12)
 TTTTTTTTTTTTTTTTTTTTTTTTTTTTTT PDIG        TELAPSE       11.01 TCPU        9.44
 CHARGE NORMALIZATION FACTOR   1.00000000
 TOTAL ATOMIC CHARGES:
   5.9575475   5.9562034   5.9532455   6.0868743   5.9575516   6.0680290
   6.0680234   5.9532455   5.9538323   6.0290131   5.9556588   6.0271564
   6.0290155   6.0277496   6.0277541   6.0271654   5.9219346
 TTTTTTTTTTTTTTTTTTTTTTTTTTTTTT MOQGAD      TELAPSE       11.01 TCPU        9.44
 TTTTTTTTTTTTTTTTTTTTTTTTTTTTTT SHELLXN     TELAPSE       12.15 TCPU       10.58
 TTTTTTTTTTTTTTTTTTTTTTTTTTTTTT MONMO3      TELAPSE       12.30 TCPU       10.72
 NUMERICALLY INTEGRATED DENSITY    101.9998379675
 TTTTTTTTTTTTTTTTTTTTTTTTTTTTTT NUMDFT      TELAPSE       12.64 TCPU       11.07
 CYC   4 ETOT(AU) -6.470370831041E+02 DETOT -2.36E-02 tst  3.15E-04 PX  6.18E-02
 TTTTTTTTTTTTTTTTTTTTTTTTTTTTTT DIIS        TELAPSE       12.66 TCPU       11.09
 DIIS TEST: 0.96181E-01 AT SCF   CYCLE   4 - DIIS ACTIVE - HISTORY:     4 CYCLES
 TTTTTTTTTTTTTTTTTTTTTTTTTTTTTT FDIK        TELAPSE       12.90 TCPU       11.33
 POSSIBLY CONDUCTING STATE - EFERMI(AU) -1.7253045E-01 (RES. CHARGE  4.04E-10;IT. 12)
 TTTTTTTTTTTTTTTTTTTTTTTTTTTTTT PDIG        TELAPSE       13.03 TCPU       11.45
 CHARGE NORMALIZATION FACTOR   1.00000000
 TOTAL ATOMIC CHARGES:
   6.0035309   6.0061835   6.0268966   6.0403916   6.0035352   6.0773473
   6.0773387   6.0268963   6.0260068   5.9590717   5.9467722   5.9623633
   5.9590742   5.9611684   5.9611726   5.9623720   5.9998786
 TTTTTTTTTTTTTTTTTTTTTTTTTTTTTT MOQGAD      TELAPSE       13.03 TCPU       11.45
 TTTTTTTTTTTTTTTTTTTTTTTTTTTTTT SHELLXN     TELAPSE       14.17 TCPU       12.59
 TTTTTTTTTTTTTTTTTTTTTTTTTTTTTT MONMO3      TELAPSE       14.32 TCPU       12.74
 NUMERICALLY INTEGRATED DENSITY    101.9998374203
 TTTTTTTTTTTTTTTTTTTTTTTTTTTTTT NUMDFT      TELAPSE       14.77 TCPU       13.20
 CYC   5 ETOT(AU) -6.470464869983E+02 DETOT -9.40E-03 tst  2.44E-04 PX  2.56E-02
 TTTTTTTTTTTTTTTTTTTTTTTTTTTTTT DIIS        TELAPSE       14.79 TCPU       13.22
 DIIS TEST: 0.10680E-01 AT SCF   CYCLE   5 - DIIS ACTIVE - HISTORY:     5 CYCLES
 TTTTTTTTTTTTTTTTTTTTTTTTTTTTTT FDIK        TELAPSE       15.03 TCPU       13.45
 POSSIBLY CONDUCTING STATE - EFERMI(AU) -1.7098099E-01 (RES. CHARGE  4.83E-12;IT. 12)
 TTTTTTTTTTTTTTTTTTTTTTTTTTTTTT PDIG        TELAPSE       15.15 TCPU       13.57
 CHARGE NORMALIZATION FACTOR   1.00000000
 TOTAL ATOMIC CHARGES:
   6.0165871   6.0115362   6.0182799   6.0936370   6.0165909   6.0066806
   6.0066792   6.0182799   6.0178753   5.9794469   5.9522271   5.9720636
   5.9794492   5.9749258   5.9749307   5.9720728   5.9887378
 TTTTTTTTTTTTTTTTTTTTTTTTTTTTTT MOQGAD      TELAPSE       15.15 TCPU       13.57
 TTTTTTTTTTTTTTTTTTTTTTTTTTTTTT SHELLXN     TELAPSE       16.29 TCPU       14.71
 TTTTTTTTTTTTTTTTTTTTTTTTTTTTTT MONMO3      TELAPSE       16.44 TCPU       14.86
 NUMERICALLY INTEGRATED DENSITY    101.9998368641
 TTTTTTTTTTTTTTTTTTTTTTTTTTTTTT NUMDFT      TELAPSE       16.78 TCPU       15.20
 CYC   6 ETOT(AU) -6.470466226386E+02 DETOT -1.36E-04 tst  1.14E-04 PX  1.24E-02
 TTTTTTTTTTTTTTTTTTTTTTTTTTTTTT DIIS        TELAPSE       16.80 TCPU       15.22
 DIIS TEST: 0.91671E-02 AT SCF   CYCLE   6 - DIIS ACTIVE - HISTORY:     6 CYCLES
 TTTTTTTTTTTTTTTTTTTTTTTTTTTTTT FDIK        TELAPSE       17.05 TCPU       15.47
 POSSIBLY CONDUCTING STATE - EFERMI(AU) -1.7066638E-01 (RES. CHARGE  1.91E-10;IT. 10)
 TTTTTTTTTTTTTTTTTTTTTTTTTTTTTT PDIG        TELAPSE       17.17 TCPU       15.58
 CHARGE NORMALIZATION FACTOR   1.00000000
 TOTAL ATOMIC CHARGES:
   6.0109552   6.0115302   6.0187054   6.0189012   6.0109593   6.0346680
   6.0346599   6.0187054   6.0190120   5.9797165   5.9519087   5.9809909
   5.9797191   5.9806237   5.9806280   5.9809996   5.9873168
 TTTTTTTTTTTTTTTTTTTTTTTTTTTTTT MOQGAD      TELAPSE       17.17 TCPU       15.58
 TTTTTTTTTTTTTTTTTTTTTTTTTTTTTT SHELLXN     TELAPSE       18.31 TCPU       16.73
 TTTTTTTTTTTTTTTTTTTTTTTTTTTTTT MONMO3      TELAPSE       18.46 TCPU       16.87
 NUMERICALLY INTEGRATED DENSITY    101.9998368978
 TTTTTTTTTTTTTTTTTTTTTTTTTTTTTT NUMDFT      TELAPSE       18.81 TCPU       17.22
 CYC   7 ETOT(AU) -6.470476522563E+02 DETOT -1.03E-03 tst  7.57E-05 PX  1.54E-02
 TTTTTTTTTTTTTTTTTTTTTTTTTTTTTT DIIS        TELAPSE       18.83 TCPU       17.24
 DIIS TEST: 0.51169E-03 AT SCF   CYCLE   7 - DIIS ACTIVE - HISTORY:     7 CYCLES
 TTTTTTTTTTTTTTTTTTTTTTTTTTTTTT FDIK        TELAPSE       19.08 TCPU       17.49
 POSSIBLY CONDUCTING STATE - EFERMI(AU) -1.7070821E-01 (RES. CHARGE  1.34E-10;IT.  8)
 TTTTTTTTTTTTTTTTTTTTTTTTTTTTTT PDIG        TELAPSE       19.19 TCPU       17.61
 CHARGE NORMALIZATION FACTOR   1.00000000
 TOTAL ATOMIC CHARGES:
   6.0052194   6.0055384   6.0216034   6.0311260   6.0052235   6.0285305
   6.0285247   6.0216033   6.0214527   5.9818838   5.9512842   5.9817840
   5.9818862   5.9816755   5.9816800   5.9817929   5.9891915
 TTTTTTTTTTTTTTTTTTTTTTTTTTTTTT MOQGAD      TELAPSE       19.19 TCPU       17.61
 TTTTTTTTTTTTTTTTTTTTTTTTTTTTTT SHELLXN     TELAPSE       20.34 TCPU       18.75
 TTTTTTTTTTTTTTTTTTTTTTTTTTTTTT MONMO3      TELAPSE       20.48 TCPU       18.89
 NUMERICALLY INTEGRATED DENSITY    101.9998368508
 TTTTTTTTTTTTTTTTTTTTTTTTTTTTTT NUMDFT      TELAPSE       20.83 TCPU       19.24
 CYC   8 ETOT(AU) -6.470477101674E+02 DETOT -5.79E-05 tst  2.24E-06 PX  2.65E-03
 TTTTTTTTTTTTTTTTTTTTTTTTTTTTTT DIIS        TELAPSE       20.85 TCPU       19.26
 DIIS TEST: 0.29636E-04 AT SCF   CYCLE   8 - DIIS ACTIVE - HISTORY:     8 CYCLES
 TTTTTTTTTTTTTTTTTTTTTTTTTTTTTT FDIK        TELAPSE       21.10 TCPU       19.51
 POSSIBLY CONDUCTING STATE - EFERMI(AU) -1.7069740E-01 (RES. CHARGE  6.39E-14;IT.  8)
 TTTTTTTTTTTTTTTTTTTTTTTTTTTTTT PDIG        TELAPSE       21.21 TCPU       19.62
 CHARGE NORMALIZATION FACTOR   1.00000000
 TOTAL ATOMIC CHARGES:
   6.0055386   6.0053844   6.0210710   6.0296482   6.0055428   6.0293556
   6.0293468   6.0210708   6.0212002   5.9816563   5.9539358   5.9815301
   5.9816589   5.9816251   5.9816293   5.9815389   5.9882672
 TTTTTTTTTTTTTTTTTTTTTTTTTTTTTT MOQGAD      TELAPSE       21.21 TCPU       19.62
 TTTTTTTTTTTTTTTTTTTTTTTTTTTTTT SHELLXN     TELAPSE       22.36 TCPU       20.77
 TTTTTTTTTTTTTTTTTTTTTTTTTTTTTT MONMO3      TELAPSE       22.50 TCPU       20.91
 NUMERICALLY INTEGRATED DENSITY    101.9998368472
 TTTTTTTTTTTTTTTTTTTTTTTTTTTTTT NUMDFT      TELAPSE       22.85 TCPU       21.26
 CYC   9 ETOT(AU) -6.470477124238E+02 DETOT -2.26E-06 tst  5.14E-08 PX  3.67E-04
 TTTTTTTTTTTTTTTTTTTTTTTTTTTTTT DIIS        TELAPSE       22.87 TCPU       21.28
 DIIS TEST: 0.40468E-05 AT SCF   CYCLE   9 - DIIS ACTIVE - HISTORY:     9 CYCLES
 TTTTTTTTTTTTTTTTTTTTTTTTTTTTTT FDIK        TELAPSE       23.12 TCPU       21.53
 POSSIBLY CONDUCTING STATE - EFERMI(AU) -1.7071887E-01 (RES. CHARGE  9.86E-12;IT.  8)
 TTTTTTTTTTTTTTTTTTTTTTTTTTTTTT PDIG        TELAPSE       23.24 TCPU       21.64
 CHARGE NORMALIZATION FACTOR   1.00000000
 TOTAL ATOMIC CHARGES:
   6.0059160   6.0061010   6.0207944   6.0300984   6.0059198   6.0296095
   6.0296075   6.0207946   6.0206127   5.9816383   5.9525702   5.9816948
   5.9816407   5.9815653   5.9815701   5.9817040   5.9881628
 TTTTTTTTTTTTTTTTTTTTTTTTTTTTTT MOQGAD      TELAPSE       23.24 TCPU       21.64
 TTTTTTTTTTTTTTTTTTTTTTTTTTTTTT SHELLXN     TELAPSE       24.38 TCPU       22.79
 TTTTTTTTTTTTTTTTTTTTTTTTTTTTTT MONMO3      TELAPSE       24.53 TCPU       22.93
 NUMERICALLY INTEGRATED DENSITY    101.9998368539
 TTTTTTTTTTTTTTTTTTTTTTTTTTTTTT NUMDFT      TELAPSE       24.87 TCPU       23.27
 CYC  10 ETOT(AU) -6.470477126793E+02 DETOT -2.56E-07 tst  6.28E-09 PX  1.88E-04
 TTTTTTTTTTTTTTTTTTTTTTTTTTTTTT DIIS        TELAPSE       24.90 TCPU       23.30
 DIIS TEST: 0.26486E-06 AT SCF   CYCLE  10 - DIIS ACTIVE - HISTORY:    10 CYCLES
 TTTTTTTTTTTTTTTTTTTTTTTTTTTTTT FDIK        TELAPSE       25.15 TCPU       23.55
 POSSIBLY CONDUCTING STATE - EFERMI(AU) -1.7071634E-01 (RES. CHARGE  2.30E-11;IT.  6)
 TTTTTTTTTTTTTTTTTTTTTTTTTTTTTT PDIG        TELAPSE       25.26 TCPU       23.66
 CHARGE NORMALIZATION FACTOR   1.00000000
 TOTAL ATOMIC CHARGES:
   6.0060203   6.0060352   6.0207311   6.0300495   6.0060253   6.0295669
   6.0295490   6.0207303   6.0207988   5.9816587   5.9525306   5.9815927
   5.9816615   5.9816432   5.9816467   5.9816010   5.9881594
 TTTTTTTTTTTTTTTTTTTTTTTTTTTTTT MOQGAD      TELAPSE       25.26 TCPU       23.66
 TTTTTTTTTTTTTTTTTTTTTTTTTTTTTT SHELLXN     TELAPSE       26.40 TCPU       24.80
 TTTTTTTTTTTTTTTTTTTTTTTTTTTTTT MONMO3      TELAPSE       26.55 TCPU       24.95
 NUMERICALLY INTEGRATED DENSITY    101.9998368523
 TTTTTTTTTTTTTTTTTTTTTTTTTTTTTT NUMDFT      TELAPSE       27.01 TCPU       25.41
 CYC  11 ETOT(AU) -6.470477127399E+02 DETOT -6.06E-08 tst  6.84E-10 PX  4.36E-05
 TTTTTTTTTTTTTTTTTTTTTTTTTTTTTT DIIS        TELAPSE       27.04 TCPU       25.44
 DIIS TEST: 0.10310E-06 AT SCF   CYCLE  11 - DIIS ACTIVE - HISTORY:    11 CYCLES
 TTTTTTTTTTTTTTTTTTTTTTTTTTTTTT FDIK        TELAPSE       27.29 TCPU       25.68
 POSSIBLY CONDUCTING STATE - EFERMI(AU) -1.7071364E-01 (RES. CHARGE  2.82E-11;IT.  6)
 TTTTTTTTTTTTTTTTTTTTTTTTTTTTTT PDIG        TELAPSE       27.40 TCPU       25.80
 CHARGE NORMALIZATION FACTOR   1.00000000
 TOTAL ATOMIC CHARGES:
   6.0060172   6.0060896   6.0207849   6.0300243   6.0060197   6.0294854
   6.0294999   6.0207860   6.0207406   5.9816608   5.9525963   5.9816304
   5.9816627   5.9815950   5.9816012   5.9816404   5.9881657
 TTTTTTTTTTTTTTTTTTTTTTTTTTTTTT MOQGAD      TELAPSE       27.40 TCPU       25.80
 TTTTTTTTTTTTTTTTTTTTTTTTTTTTTT SHELLXN     TELAPSE       28.55 TCPU       26.94
 TTTTTTTTTTTTTTTTTTTTTTTTTTTTTT MONMO3      TELAPSE       28.69 TCPU       27.09
 NUMERICALLY INTEGRATED DENSITY    101.9998368510
 TTTTTTTTTTTTTTTTTTTTTTTTTTTTTT NUMDFT      TELAPSE       29.04 TCPU       27.43
 CYC  12 ETOT(AU) -6.470477127557E+02 DETOT -1.58E-08 tst  1.07E-10 PX  2.61E-05
 TTTTTTTTTTTTTTTTTTTTTTTTTTTTTT DIIS        TELAPSE       29.07 TCPU       27.46
 DIIS TEST: 0.18818E-08 AT SCF   CYCLE  12 - DIIS ACTIVE - HISTORY:    12 CYCLES
 TTTTTTTTTTTTTTTTTTTTTTTTTTTTTT FDIK        TELAPSE       29.29 TCPU       27.68
 POSSIBLY CONDUCTING STATE - EFERMI(AU) -1.7071430E-01 (RES. CHARGE  9.81E-13;IT.  6)
 TTTTTTTTTTTTTTTTTTTTTTTTTTTTTT PDIG        TELAPSE       29.40 TCPU       27.80
 CHARGE NORMALIZATION FACTOR   1.00000000
 TOTAL ATOMIC CHARGES:
   6.0060088   6.0060918   6.0207716   6.0300519   6.0060175   6.0295263
   6.0294600   6.0207681   6.0207343   5.9816533   5.9525972   5.9816362
   5.9816574   5.9816070   5.9816065   5.9816416   5.9881706
 TTTTTTTTTTTTTTTTTTTTTTTTTTTTTT MOQGAD      TELAPSE       29.41 TCPU       27.80
 TTTTTTTTTTTTTTTTTTTTTTTTTTTTTT SHELLXN     TELAPSE       30.55 TCPU       28.94
 TTTTTTTTTTTTTTTTTTTTTTTTTTTTTT MONMO3      TELAPSE       30.69 TCPU       29.08
 NUMERICALLY INTEGRATED DENSITY    101.9998368515
 TTTTTTTTTTTTTTTTTTTTTTTTTTTTTT NUMDFT      TELAPSE       31.05 TCPU       29.43
 CYC  13 ETOT(AU) -6.470477127551E+02 DETOT  6.49E-10 tst  4.13E-11 PX  9.98E-06
 TTTTTTTTTTTTTTTTTTTTTTTTTTTTTT DIIS        TELAPSE       31.07 TCPU       29.46
 DIIS TEST: 0.32767E-08 AT SCF   CYCLE  13 - DIIS ACTIVE - HISTORY:    13 CYCLES
 TTTTTTTTTTTTTTTTTTTTTTTTTTTTTT FDIK        TELAPSE       31.32 TCPU       29.71
 POSSIBLY CONDUCTING STATE - EFERMI(AU) -1.7071443E-01 (RES. CHARGE  7.49E-10;IT.  4)
 TTTTTTTTTTTTTTTTTTTTTTTTTTTTTT PDIG        TELAPSE       31.43 TCPU       29.82
 CHARGE NORMALIZATION FACTOR   1.00000000
 TOTAL ATOMIC CHARGES:
   6.0060122   6.0060909   6.0207688   6.0300536   6.0060152   6.0294908
   6.0294980   6.0207695   6.0207320   5.9816547   5.9525962   5.9816339
   5.9816568   5.9816043   5.9816099   5.9816435   5.9881697
 TTTTTTTTTTTTTTTTTTTTTTTTTTTTTT MOQGAD      TELAPSE       31.43 TCPU       29.82
 TTTTTTTTTTTTTTTTTTTTTTTTTTTTTT SHELLXN     TELAPSE       32.57 TCPU       30.96
 +++ ENERGIES IN A.U. +++
 ::: EXT EL-POLE                                  -1.0044180581005E+03
 ::: EXT EL-SPHEROPOLE                             7.8034833147071E+00
 ::: BIELET ZONE E-E                               1.4807799738736E+03
 ::: TOTAL E-E                                     4.8416539908781E+02
 ::: TOTAL E-N + N-E                              -1.8502235924341E+03
 ::: TOTAL N-N                                     1.6660125203976E+02
 ::: KINETIC ENERGY                                6.4393642529253E+02
 ::: PSEUDO TOTAL   ENERGY                        -5.5552051601402E+02
 ::: VIRIAL COEFFICIENT                            1.0737132832648E+00
 TTTTTTTTTTTTTTTTTTTTTTTTTTTTTT MONMO3      TELAPSE       32.72 TCPU       31.11
 NUMERICALLY INTEGRATED DENSITY    101.9998368515
 TTTTTTTTTTTTTTTTTTTTTTTTTTTTTT NUMDFT      TELAPSE       33.18 TCPU       31.56
 CYC  14 ETOT(AU) -6.470477127493E+02 DETOT  5.78E-09 tst  3.34E-11 PX  9.98E-06

 == SCF ENDED - CONVERGENCE ON ENERGY      E(AU) -6.4704771274932E+02 CYCLES  14


 ENERGY EXPRESSION=HARTREE+FOCK EXCH*0.00000+(PBE        EXCH)*1.00000+PBE        CORR


 TOTAL ENERGY(DFT)(AU)( 14) -6.4704771274932E+02 DE 5.8E-09 tester 3.3E-11
 TTTTTTTTTTTTTTTTTTTTTTTTTTTTTT EDFT        TELAPSE       33.18 TCPU       31.56

 *******************************************************************************
 *                             FORCE CALCULATION                               *
 *******************************************************************************

 TTTTTTTTTTTTTTTTTTTTTTTTTTTTTT NUMDFG      TELAPSE       34.05 TCPU       32.44
 INFORMATION **** EXCPOG **** EXCH. BIPO BUFFER LENGTH (WORDS) =           0
 INFORMATION **** GENPOG **** BIPO BUFFER LENGTH (WORDS) =     1422900
 TTTTTTTTTTTTTTTTTTTTTTTTTTTTTT SHELXG      TELAPSE       37.95 TCPU       36.32

 CARTESIAN FORCES IN HARTREE/BOHR (ANALYTICAL)
   ATOM                     X                   Y                   Z
   1   6             1.523142530482E-02  8.811981276790E-03  5.504461880260E-09
   2   6             3.226914919004E-07 -1.766466995505E-02 -1.012910890107E-08
   3   6            -1.219143373362E-02  7.027296694446E-03  5.655801592870E-09
   4   6            -7.849788252253E-07  3.250388564102E-02  5.568259988026E-09
   5   6            -1.523147317093E-02  8.812448560437E-03 -3.279563605244E-09
   6   6            -2.798501373155E-02 -1.633434834654E-02 -1.197655875873E-08
   7   6             2.798399797978E-02 -1.633464918393E-02 -3.866979156791E-09
   8   6             1.219138996592E-02  7.027293984652E-03 -8.766829109714E-09
   9   6            -3.085744926865E-08 -1.411937915741E-02  1.109069543156E-08
  10   6             8.049194903408E-03 -3.712919812135E-02 -9.203732663886E-09
  11   6             2.398494933351E-08  3.849713589934E-05  4.845859223505E-09
  12   6             3.622266508512E-02  1.169637195962E-02  8.934810552158E-09
  13   6            -8.048983144019E-03 -3.712924552647E-02  4.716175091669E-09
  14   6             2.816125399344E-02  2.554953148136E-02  4.712815106099E-09
  15   6            -2.816056201997E-02  2.554927714254E-02 -5.183437952034E-09
  16   6            -3.622196491986E-02  1.169616100326E-02  9.198820215653E-09
  17   6            -2.735251480868E-08 -1.254589388600E-06 -7.821498609097E-09

 RESULTANT FORCE     2.050165592848E-13 -1.079969447204E-13 -9.674769659340E-15

 SYMMETRY ALLOWED FORCES (ANALYTICAL) (DIRECTION, FORCE)

    1 -1.6169780E-05    2  1.8138358E-02    3  5.6738700E-09    4  1.5798915E-02
    5 -7.9858397E-03    6 -1.0105987E-08    7 -1.1554491E-02    8 -6.6868670E-03
    9  5.5351805E-09   10 -2.8982342E-02   11  1.6992249E-02   12  5.8548915E-09
   13 -1.7875636E-02   14 -7.7044447E-03   15 -2.8851012E-09   16 -3.3470508E-03
   17 -3.3044112E-02   18 -1.2220151E-08   19  2.5684160E-02   20  1.4638210E-02
   21 -4.8811057E-09   22 -1.2549666E-03   23  1.4079363E-02   24 -1.0561161E-08
   25  1.1555887E-02   26 -6.6720459E-03   27  9.2543487E-09   28  3.8708589E-02
   29 -1.2412520E-02   30 -1.1202211E-08   31  5.5825844E-03   32 -1.7892033E-03
   33  2.2400944E-09   34  1.5385729E-02   35  3.8632082E-02   36  7.1297372E-09
   37  4.1370190E-02   38 -2.2845745E-02   39  4.0155312E-09   40  1.1635899E-02
   41  4.2904116E-02   42  5.1801488E-09   43 -1.8034011E-02   44  9.3711976E-04
   45 -4.7945486E-09   46 -1.9969564E-02   47 -1.8045655E-02   48  1.2035183E-08
 TTTTTTTTTTTTTTTTTTTTTTTTTTTTTT TOTGRA      TELAPSE       38.52 TCPU       36.89
 INFORMATION **** opta001 **** GEOMETRY OUTPUT FILE
 CLASSICAL MODEL (SCHLEGEL) USED AS INITIAL HESSIAN MATRIX
 REFERENCE GEOMETRY DEFINED

 MAX GRADIENT      0.042904  THRESHOLD              0.000450 CONVERGED NO
 RMS GRADIENT      0.016683  THRESHOLD              0.000300 CONVERGED NO

 GRADIENT NORM     0.115582  GRADIENT THRESHOLD     0.500000

 EIGENVALUES OF THE ESTIMATED HESSIAN
  0.2644E-02  0.4489E-02  0.6324E-02  0.7091E-02  0.7247E-02  0.1237E-01
  0.1891E-01  0.2113E-01  0.3262E-01  0.4059E-01  0.4850E-01  0.5478E-01
  0.7185E-01  0.7320E-01  0.7943E-01  0.1146      0.1147      0.1168    
  0.1762      0.1791      0.1791      0.1984      0.2055      0.3337    
  0.3337      0.3808      0.4426      0.4427      0.5486      0.5489    
  0.5637      0.6071      0.7363      0.7363       1.006       1.006    
   1.120       1.145       1.145       1.170       1.236       1.239    
   1.239       1.245       1.245       1.248       1.559       1.560    

 INITIAL TRUST RADIUS    0.5000000000E+00

 PREDICTED ENERGY CHANGE    -0.631E-02

 INITIAL DISPLACEMENTS
 -0.000190  0.009067  0.000000  0.007740 -0.003908 -0.000000 -0.005357 -0.003004
  0.000000 -0.041449  0.024096  0.000001 -0.011106 -0.002462  0.000000 -0.003406
 -0.045708 -0.000002  0.037235  0.020890 -0.000000 -0.000686  0.006536 -0.000000
  0.005750 -0.003320  0.000000  0.032373 -0.012064  0.000000  0.004485 -0.001637
  0.000000  0.011564  0.033491 -0.000000  0.035825 -0.018257  0.000001  0.011628
  0.037341 -0.000000 -0.014576 -0.000915  0.000000 -0.018070 -0.014766  0.000000
 TTTTTTTTTTTTTTTTTTTTTTTTTTTTTT OPTI        TELAPSE       38.54 TCPU       36.91

 OPTOPTOPTOPTOPTOPTOPTOPTOPTOPTOPTOPTOPTOPTOPTOPTOPTOPTOPTOPTOPTOPTOPTOPTOPTOPT

 - INFORMATION ON SCF MOVED TO SCFOUT.LOG
 GEOMETRY OPTIMIZATION INFORMATION STORED IN OPTINFO.DAT

 OPTOPTOPTOPTOPTOPTOPTOPTOPTOPTOPTOPTOPTOPTOPTOPTOPTOPTOPTOPTOPTOPTOPTOPTOPTOPT
 *******************************************************************************
 COORDINATE OPTIMIZATION - POINT    2
 *******************************************************************************
 LATTICE PARAMETERS (ANGSTROMS AND DEGREES) - BOHR = 0.5291772083 ANGSTROM
 PRIMITIVE CELL - CENTRING CODE 1/0 VOLUME=   412.228566 - DENSITY  0.822 g/cm^3
         A              B              C           ALPHA      BETA       GAMMA 
     7.40317242     7.40317242     8.68503800    90.000000  90.000000 120.000000
 *******************************************************************************
 ATOMS IN THE ASYMMETRIC UNIT   17 - ATOMS IN THE UNIT CELL:   17
     ATOM                 X/A                 Y/B                 Z/C    
 *******************************************************************************
      1 T   6 C     1.114609432653E-01  2.229482192952E-01  3.000000085315E-01
      2 T   6 C     1.114687949110E-01 -4.448021387543E-01  2.999999856111E-01
      3 T   6 C     1.105742409836E-01 -1.113751694986E-01  3.000000035275E-01
      4 T   6 C     4.425354972787E-01  2.241312996529E-01  3.000000653214E-01
      5 T   6 C     4.437178470950E-01 -4.447945406293E-01  3.000000105390E-01
      6 T   6 C     4.426107395996E-01 -1.148617086911E-01  2.999999034918E-01
      7 T   6 C    -2.184717974555E-01  2.240559176552E-01  2.999999869214E-01
      8 T   6 C    -2.219580223012E-01 -4.439073125111E-01  2.999999927712E-01
      9 T   6 C    -2.219323387291E-01 -1.114009290140E-01  3.000000186489E-01
     10 T   6 C     2.239203269334E-01  1.101804556200E-01  3.000000084403E-01
     11 T   6 C     2.222130452889E-01  4.444532088103E-01  3.000000081424E-01
     12 T   6 C     2.239560457247E-01 -2.195440760688E-01  2.999999832049E-01
     13 T   6 C    -4.435136515253E-01  4.427466635610E-01  3.000000343848E-01
     14 T   6 C    -4.434799456916E-01 -2.195661389188E-01  2.999999905141E-01
     15 T   6 C    -1.137672835569E-01  1.101467204730E-01  3.000000028988E-01
     16 T   6 C    -1.137892110533E-01  4.427107557545E-01  3.000000048994E-01
     17 T   6 C    -1.111007863220E-01 -2.222323378463E-01  2.999999921515E-01

 T = ATOM BELONGING TO THE ASYMMETRIC UNIT

 TOTAL ENERGY(DFT)(AU)( 18) -6.4705607334939E+02     DE (AU)   -8.361E-03

 UPDATED TRUST RADIUS     0.100E+01

 SYMMETRY ALLOWED FORCES  (COORDINATE, FORCE)

    1 -7.4458882E-06    2  2.8532633E-03    3 -5.2421673E-09    4  2.4108680E-03
    5 -1.2138210E-03    6  2.4463675E-08    7 -6.9190682E-03    8 -4.0285981E-03
    9 -1.5891239E-08   10 -1.2858430E-02   11  7.0414233E-03   12  2.9235021E-08
   13 -3.8236803E-03   14 -1.0805278E-03   15  5.7022062E-09   16 -1.7200151E-03
   17 -1.4235680E-02   18  1.6935157E-08   19  1.0758455E-02   20  6.3045065E-03
   21  1.7653055E-08   22 -7.0929866E-04   23  7.9377165E-03   24  3.8786688E-08
   25  6.4619313E-03   26 -3.7305583E-03   27 -2.9525038E-08   28  1.0314961E-02
   29 -3.4591656E-03   30  3.3191295E-08   31  1.4998305E-03   32 -5.0509376E-04
   33 -1.8375455E-09   34  4.0065563E-03   35  1.0346283E-02   36 -2.1403116E-08
   37  1.1144186E-02   38 -6.0263284E-03   39 -3.2533267E-08   40  3.2166292E-03
   41  1.1508545E-02   42  7.0243003E-10   43 -4.7663417E-03   44  1.3862560E-04
   45  2.3815334E-08   46 -5.3847209E-03   47 -4.7878336E-03   48 -5.1599795E-08

 GRADIENT NORM     0.037583  GRADIENT THRESHOLD     0.500000

 EIGENVALUES OF THE ESTIMATED HESSIAN
  0.2644E-02  0.4489E-02  0.6324E-02  0.7091E-02  0.7247E-02  0.1237E-01
  0.1891E-01  0.2113E-01  0.3262E-01  0.4059E-01  0.4850E-01  0.5478E-01
  0.7185E-01  0.7320E-01  0.7943E-01  0.1146      0.1147      0.1168    
  0.1762      0.1791      0.1791      0.1824      0.2055      0.3337    
  0.3337      0.3750      0.4426      0.4427      0.5453      0.5487    
  0.5489      0.6071      0.7363      0.7363      0.8565       1.006    
   1.006       1.145       1.145       1.170       1.239       1.239    
   1.242       1.245       1.245       1.248       1.559       1.560    

 PREDICTED ENERGY CHANGE    -0.146E-02

 MAX GRADIENT      0.014236  THRESHOLD              0.000450 CONVERGED NO
 RMS GRADIENT      0.005425  THRESHOLD              0.000300 CONVERGED NO
 MAX DISPLAC.      0.054344  THRESHOLD              0.001800 CONVERGED NO
 RMS DISPLAC.      0.014239  THRESHOLD              0.001200 CONVERGED NO
 TTTTTTTTTTTTTTTTTTTTTTTTTTTTTT OPTI        TELAPSE       83.90 TCPU       81.90
 *******************************************************************************
 COORDINATE OPTIMIZATION - POINT    3
 *******************************************************************************
 LATTICE PARAMETERS (ANGSTROMS AND DEGREES) - BOHR = 0.5291772083 ANGSTROM
 PRIMITIVE CELL - CENTRING CODE 1/0 VOLUME=   412.228566 - DENSITY  0.822 g/cm^3
         A              B              C           ALPHA      BETA       GAMMA 
     7.40317242     7.40317242     8.68503800    90.000000  90.000000 120.000000
 *******************************************************************************
 ATOMS IN THE ASYMMETRIC UNIT   17 - ATOMS IN THE UNIT CELL:   17
     ATOM                 X/A                 Y/B                 Z/C    
 *******************************************************************************
      1 T   6 C     1.114254359539E-01  2.228802241513E-01  3.000000792988E-01
      2 T   6 C     1.114339756783E-01 -4.447676910051E-01  2.999999245081E-01
      3 T   6 C     1.093513918021E-01 -1.119969234021E-01  2.999999367031E-01
      4 T   6 C     4.403108476620E-01  2.263568935966E-01  3.000003995309E-01
      5 T   6 C     4.437853352841E-01 -4.447595062234E-01  2.999999713216E-01
      6 T   6 C     4.403851760776E-01 -1.192899958687E-01  2.999998520511E-01
      7 T   6 C    -2.140439957203E-01  2.262817066931E-01  3.000000481665E-01
      8 T   6 C    -2.213360768679E-01 -4.426840308817E-01  3.000000142893E-01
      9 T   6 C    -2.213169185364E-01 -1.120164230885E-01  2.999999197463E-01
     10 T   6 C     2.238382549198E-01  1.095520336695E-01  3.000001293970E-01
     11 T   6 C     2.222149906203E-01  4.444507642754E-01  3.000000329610E-01
     12 T   6 C     2.238805774493E-01 -2.190020256235E-01  2.999998134357E-01
     13 T   6 C    -4.428848204279E-01  4.428293406024E-01  3.000000302273E-01
     14 T   6 C    -4.428604679162E-01 -2.190213289098E-01  2.999999019276E-01
     15 T   6 C    -1.143126445630E-01  1.095272620768E-01  3.000000659416E-01
     16 T   6 C    -1.143315680856E-01  4.427862805139E-01  2.999998781993E-01
     17 T   6 C    -1.110950488847E-01 -2.222376916865E-01  3.000000022946E-01

 T = ATOM BELONGING TO THE ASYMMETRIC UNIT

 TOTAL ENERGY(DFT)(AU)( 12) -6.4705749840616E+02     DE (AU)   -1.425E-03

 UPDATED TRUST RADIUS     0.200E+01

 SYMMETRY ALLOWED FORCES  (COORDINATE, FORCE)

    1 -1.2083062E-05    2  6.1734727E-04    3  4.8830014E-08    4  5.3813789E-04
    5 -2.7227695E-04    6 -7.7002696E-08    7  1.9777444E-03    8  1.1682892E-03
    9  8.1766786E-08   10  1.6766202E-04   11  1.0898812E-04   12 -6.4275523E-08
   13 -3.5203052E-04   14 -1.8587893E-04   15  2.0374499E-08   16  2.1040498E-04
   17  9.3323484E-05   18 -2.3038641E-07   19  2.0932716E-04   20  6.5687601E-05
   21 -1.5728059E-07   22  1.8059597E-04   23 -2.1832780E-03   24 -1.8838792E-07
   25 -1.7886780E-03   26  1.0333647E-03   27  1.2619467E-07   28 -2.0442389E-04
   29 -9.2239183E-04   30 -7.1519578E-08   31 -3.4147502E-05   32 -1.2967878E-04
   33 -1.1461699E-07   34 -9.6584500E-04   35  1.1415777E-04   36  1.2037659E-07
   37  4.9367959E-04   38  5.2923305E-04   39  1.1763981E-07   40  8.7652817E-04
   41  3.0813873E-04   42  5.9747968E-08   43  4.2899203E-04   44 -9.7366886E-04
   45 -8.0152184E-08   46 -4.3662827E-04   47  4.2412742E-04   48  2.5934248E-07

 GRADIENT NORM     0.004487  GRADIENT THRESHOLD     0.500000

 EIGENVALUES OF THE ESTIMATED HESSIAN
  0.2644E-02  0.4489E-02  0.6324E-02  0.7091E-02  0.7247E-02  0.1237E-01
  0.1891E-01  0.2113E-01  0.3262E-01  0.4059E-01  0.4850E-01  0.5478E-01
  0.7185E-01  0.7320E-01  0.7943E-01  0.1146      0.1147      0.1168    
  0.1762      0.1791      0.1791      0.1832      0.2055      0.3337    
  0.3337      0.3780      0.4426      0.4427      0.5326      0.5486    
  0.5489      0.6071      0.7363      0.7363      0.8733       1.006    
   1.006       1.145       1.145       1.170       1.239       1.239    
   1.245       1.245       1.248       1.258       1.559       1.560    

 PREDICTED ENERGY CHANGE    -0.100E-04

 MAX GRADIENT      0.002183  THRESHOLD              0.000450 CONVERGED NO
 RMS GRADIENT      0.000648  THRESHOLD              0.000300 CONVERGED NO
 MAX DISPLAC.      0.002734  THRESHOLD              0.001800 CONVERGED NO
 RMS DISPLAC.      0.000709  THRESHOLD              0.001200 CONVERGED YES
 TTTTTTTTTTTTTTTTTTTTTTTTTTTTTT OPTI        TELAPSE      116.99 TCPU      114.86
 *******************************************************************************
 COORDINATE OPTIMIZATION - POINT    4
 *******************************************************************************
 LATTICE PARAMETERS (ANGSTROMS AND DEGREES) - BOHR = 0.5291772083 ANGSTROM
 PRIMITIVE CELL - CENTRING CODE 1/0 VOLUME=   412.228566 - DENSITY  0.822 g/cm^3
         A              B              C           ALPHA      BETA       GAMMA 
     7.40317242     7.40317242     8.68503800    90.000000  90.000000 120.000000
 *******************************************************************************
 ATOMS IN THE ASYMMETRIC UNIT   17 - ATOMS IN THE UNIT CELL:   17
     ATOM                 X/A                 Y/B                 Z/C    
 *******************************************************************************
      1 T   6 C     1.114326421170E-01  2.228991901368E-01  3.000000616996E-01
      2 T   6 C     1.114426863400E-01 -4.447762325577E-01  3.000001006914E-01
      3 T   6 C     1.095764955111E-01 -1.118807406771E-01  3.000001668778E-01
      4 T   6 C     4.403144910665E-01  2.263527108472E-01  3.000003578669E-01
      5 T   6 C     4.437669490685E-01 -4.447663260565E-01  3.000003063965E-01
      6 T   6 C     4.404011571053E-01 -1.192770769371E-01  2.999983892645E-01
      7 T   6 C    -2.140569630971E-01  2.262654363765E-01  2.999994663089E-01
      8 T   6 C    -2.214523314350E-01 -4.429093571889E-01  3.000001260375E-01
      9 T   6 C    -2.214288177914E-01 -1.119044366759E-01  3.000002481066E-01
     10 T   6 C     2.238433022156E-01  1.095206636536E-01  3.000001292066E-01
     11 T   6 C     2.222137264958E-01  4.444525492609E-01  3.000000277466E-01
     12 T   6 C     2.238891034146E-01 -2.189607135812E-01  2.999999142856E-01
     13 T   6 C    -4.428536712688E-01  4.428239103370E-01  3.000005358981E-01
     14 T   6 C    -4.428215058104E-01 -2.189806981013E-01  2.999998903735E-01
     15 T   6 C    -1.143530399047E-01  1.094882694406E-01  2.999999698981E-01
     16 T   6 C    -1.143728225721E-01  4.427776300465E-01  3.000002573989E-01
     17 T   6 C    -1.110969570096E-01 -2.222358894339E-01  3.000000519430E-01

 T = ATOM BELONGING TO THE ASYMMETRIC UNIT

 TOTAL ENERGY(DFT)(AU)( 11) -6.4705750844285E+02     DE (AU)   -1.004E-05

 UPDATED TRUST RADIUS     0.400E+01

 SYMMETRY ALLOWED FORCES  (COORDINATE, FORCE)

    1 -2.9329522E-06    2  2.2066908E-04    3 -1.2254921E-07    4  1.7983756E-04
    5 -9.0195360E-05    6  3.1758999E-08    7  2.6111058E-05    8  7.5547787E-06
    9 -2.6408182E-07   10 -6.8654800E-07   11  1.6998743E-05   12  7.3059279E-07
   13 -1.7881869E-04   14 -9.8153513E-05   15 -2.0400091E-07   16 -5.2626772E-06
   17  2.3222131E-07   18  7.7275923E-07   19 -2.8302082E-06   20  5.9051379E-06
   21  8.2341691E-07   22  5.5218435E-06   23 -1.0151713E-05   24  6.5025268E-07
   25 -5.8694465E-06   26  3.6391716E-06   27 -3.1977422E-07   28 -1.9489756E-04
   29 -1.1964100E-04   30  2.9580332E-07   31 -2.4888308E-05   32 -1.9002388E-05
   33  4.8149493E-07   34 -2.4370715E-04   35 -1.2586435E-04   36 -3.2933086E-07
   37 -7.7151954E-05   38  1.9128492E-04   39 -5.3639009E-07   40  1.1260229E-04
   41 -1.2014236E-04   42 -6.4067012E-08   43  1.5619111E-04   44 -1.7851081E-04
   45  2.3193560E-07   46 -1.1374304E-05   47  1.5354869E-04   48 -9.9984294E-07

 GRADIENT NORM     0.000640  GRADIENT THRESHOLD     0.500000

 EIGENVALUES OF THE ESTIMATED HESSIAN
  0.2644E-02  0.4489E-02  0.6324E-02  0.7091E-02  0.7247E-02  0.1237E-01
  0.1891E-01  0.2113E-01  0.3262E-01  0.4059E-01  0.4850E-01  0.5478E-01
  0.7185E-01  0.7320E-01  0.7943E-01  0.1146      0.1147      0.1168    
  0.1762      0.1791      0.1791      0.1857      0.2055      0.3337    
  0.3337      0.3773      0.4426      0.4427      0.5486      0.5488    
  0.6069      0.6071      0.7363      0.7363      0.8652       1.006    
   1.006       1.093       1.145       1.145       1.170       1.239    
   1.240       1.245       1.245       1.248       1.559       1.560    

 PREDICTED ENERGY CHANGE    -0.324E-06

 MAX GRADIENT      0.000244  THRESHOLD              0.000450 CONVERGED YES
 RMS GRADIENT      0.000092  THRESHOLD              0.000300 CONVERGED YES
 MAX DISPLAC.      0.000404  THRESHOLD              0.001800 CONVERGED YES
 RMS DISPLAC.      0.000180  THRESHOLD              0.001200 CONVERGED YES

 CONVERGENCE TESTS SATISFIED AFTER   4 ENERGY AND GRADIENT CALCULATIONS
 +++++++++++++++++++++++++++++++++++++++++++++++++++++++++++++++++++++++++++++++
 FINALRUN OPTION: RE-STARTING OPTIMIZATION
 +++++++++++++++++++++++++++++++++++++++++++++++++++++++++++++++++++++++++++++++
 TTTTTTTTTTTTTTTTTTTTTTTTTTTTTT OPTI        TELAPSE      148.82 TCPU      146.53
 *******************************************************************************
 COORDINATE OPTIMIZATION - POINT    5
 *******************************************************************************
 LATTICE PARAMETERS (ANGSTROMS AND DEGREES) - BOHR = 0.5291772083 ANGSTROM
 PRIMITIVE CELL - CENTRING CODE 1/0 VOLUME=   412.228566 - DENSITY  0.822 g/cm^3
         A              B              C           ALPHA      BETA       GAMMA 
     7.40317242     7.40317242     8.68503800    90.000000  90.000000 120.000000
 *******************************************************************************
 ATOMS IN THE ASYMMETRIC UNIT   17 - ATOMS IN THE UNIT CELL:   17
     ATOM                 X/A                 Y/B                 Z/C    
 *******************************************************************************
      1 T   6 C     1.114443088113E-01  2.229240047190E-01  3.000004415747E-01
      2 T   6 C     1.114540952031E-01 -4.447875845879E-01  2.999981796181E-01
      3 T   6 C     1.095699459343E-01 -1.118847365193E-01  2.999989199578E-01
      4 T   6 C     4.402975534453E-01  2.263695350424E-01  3.000047182954E-01
[...]
  11 C    1     2.4856     4.6970   10 C    0 0 0
  11 C    1     2.4856     4.6970   13 C    0 0 0
  11 C    1     2.4856     4.6971   12 C    0 0 0

  12 C    1     1.3897     2.6261    6 C    0 0 0
  12 C    1     1.4196     2.6827    3 C    0 0 0
  12 C    1     1.4477     2.7358    2 C    0 0 0
  12 C    1     2.4321     4.5960   10 C    0 1 0
  12 C    1     2.4677     4.6634   14 C    0 0 0
  12 C    1     2.4678     4.6634   17 C   -1 0 0

  13 C    1     1.3894     2.6256    4 C    0 0 0
  13 C    1     1.4197     2.6829    8 C    0 0 0
  13 C    1     1.4475     2.7355    5 C    0 0 0
  13 C    1     2.4321     4.5960   16 C    0 0 0
  13 C    1     2.4678     4.6634   10 C    0 0 0
  13 C    1     2.4678     4.6634   17 C    0 0 0

  14 C    1     1.3895     2.6257    6 C    0 0 0
  14 C    1     1.4197     2.6828    9 C    0 0 0
  14 C    1     1.4475     2.7354    5 C    0 0 0
  14 C    1     2.4318     4.5955   15 C    0 1 0
  14 C    1     2.4677     4.6634   12 C    0 0 0
  14 C    1     2.4678     4.6635   17 C    0 0 0

  15 C    1     1.3895     2.6257    7 C    0 0 0
  15 C    1     1.4197     2.6828    9 C    0-1 0
  15 C    1     1.4475     2.7354    1 C    1 0 0
  15 C    1     2.4318     4.5955   14 C    0-1 0
  15 C    1     2.4677     4.6634   16 C    0 0 0
  15 C    1     2.4678     4.6635   17 C    0-1 0

  16 C    1     1.3897     2.6261    7 C    0 0 0
  16 C    1     1.4196     2.6827    8 C    0 0 0
  16 C    1     1.4477     2.7358    2 C    1 0 0
  16 C    1     2.4321     4.5960   13 C    0 0 0
  16 C    1     2.4677     4.6634   15 C    0 0 0
  16 C    1     2.4678     4.6634   17 C    0 0 0

  17 C    1     1.4147     2.6734    9 C    0 0 0
  17 C    1     1.4148     2.6735    3 C    1 0 0
  17 C    1     1.4148     2.6735    8 C    0 0 0
  17 C    1     2.4678     4.6634   12 C    1 0 0
  17 C    1     2.4678     4.6634   16 C    0 0 0
  17 C    1     2.4678     4.6634   10 C    1 1 0


 FINAL OPTIMIZED GEOMETRY - DIMENSIONALITY OF THE SYSTEM      3
 (NON PERIODIC DIRECTION: LATTICE PARAMETER FORMALLY SET TO 500)
 *******************************************************************************
 LATTICE PARAMETERS (ANGSTROMS AND DEGREES) - BOHR = 0.5291772083 ANGSTROM
 PRIMITIVE CELL - CENTRING CODE 1/0 VOLUME=   412.228566 - DENSITY  0.822 g/cm^3
         A              B              C           ALPHA      BETA       GAMMA 
     7.40317242     7.40317242     8.68503800    90.000000  90.000000 120.000000
 *******************************************************************************
 ATOMS IN THE ASYMMETRIC UNIT   17 - ATOMS IN THE UNIT CELL:   17
     ATOM                 X/A                 Y/B                 Z/C    
 *******************************************************************************
      1 T   6 C     1.114443088113E-01  2.229240047190E-01  3.000004415747E-01
      2 T   6 C     1.114540952031E-01 -4.447875845879E-01  2.999981796181E-01
      3 T   6 C     1.095699459343E-01 -1.118847365193E-01  2.999989199578E-01
      4 T   6 C     4.402975534453E-01  2.263695350424E-01  3.000047182954E-01
      5 T   6 C     4.437423301951E-01 -4.447778704384E-01  2.999985608829E-01
      6 T   6 C     4.403878430585E-01 -1.193053457857E-01  3.000022906054E-01
      7 T   6 C    -2.140286209380E-01  2.262787271862E-01  3.000031123567E-01
      8 T   6 C    -2.214484010957E-01 -4.429029341298E-01  2.999991332562E-01
      9 T   6 C    -2.214236254524E-01 -1.119096364117E-01  2.999988545093E-01
     10 T   6 C     2.238131325398E-01  1.095140552077E-01  3.000009205499E-01
     11 T   6 C     2.222134152771E-01  4.444529940905E-01  2.999999700107E-01
     12 T   6 C     2.238607277466E-01 -2.189818319525E-01  2.999983603371E-01
     13 T   6 C    -4.428471564702E-01  4.428539146496E-01  2.999992499839E-01
     14 T   6 C    -4.428135578052E-01 -2.190032861900E-01  2.999992129136E-01
     15 T   6 C    -1.143303232589E-01  1.094803048740E-01  3.000005884822E-01
     16 T   6 C    -1.143516435110E-01  4.428059840015E-01  2.999983082219E-01
     17 T   6 C    -1.110955792343E-01 -2.222374048659E-01  2.999991784444E-01

 T = ATOM BELONGING TO THE ASYMMETRIC UNIT
 INFORMATION **** fort.34 **** GEOMETRY OUTPUT FILE

 DIRECT LATTICE VECTORS CARTESIAN COMPONENTS (ANGSTROM)
          X                    Y                    Z
   0.370158621205E+01  -0.641133538787E+01   0.000000000000E+00
   0.370158621205E+01   0.641133538787E+01   0.000000000000E+00
   0.000000000000E+00   0.000000000000E+00   0.868503800000E+01


 CARTESIAN COORDINATES - PRIMITIVE CELL
 *******************************************************************************
 *      ATOM          X(ANGSTROM)         Y(ANGSTROM)         Z(ANGSTROM)
 *******************************************************************************
    1     6 C     1.237693139110E+00  7.147337194021E-01  2.605515235093E+00
    2     6 C     2.467723563728E+00  2.845083422016E+00  2.605495589914E+00
    3     6 C     3.693017815136E+00  4.991515145443E+00  2.605502019793E+00
    4     6 C     2.467725702773E+00 -1.371564274842E+00  2.605552378575E+00
    5     6 C     3.697753070562E+00  7.147343827108E-01  2.605498901213E+00
    6     6 C     4.890100756884E+00  2.822954639881E+00  2.605531293995E+00
    7     6 C     3.746931036433E+00 -3.588377305300E+00  2.605538430936E+00
    8     6 C     4.944018681671E+00 -1.419819284445E+00  2.605503872297E+00
    9     6 C     6.169310617965E+00  7.021309134025E-01  2.605501451369E+00
   10     6 C     1.233839322267E+00 -7.328097192996E-01  2.605519395011E+00
   11     6 C     2.467723188951E+00  1.424852476231E+00  2.605511139542E+00
   12     6 C     3.719645865450E+00  3.572123213614E+00  2.605497159465E+00
   13     6 C     3.701611228033E+00 -7.328087675246E-01  2.605504886081E+00
   14     6 C     4.953400319464E+00  1.434922714574E+00  2.605504564125E+00
   15     6 C     3.683633450867E+00 -4.976410387537E+00  2.605516510990E+00
   16     6 C     4.917388270097E+00 -2.839210973976E+00  2.605496706843E+00
   17     6 C     6.169311646132E+00 -7.125675197434E-01  2.605504264758E+00

 ****    1 SYMMOPS - TRANSLATORS IN FRACTIONAL UNITS
 **** MATRICES AND TRANSLATORS IN THE CRYSTALLOGRAPHIC REFERENCE FRAME
   V INV                    ROTATION MATRICES                   TRANSLATORS
   1   1  1.00  0.00  0.00  0.00  1.00  0.00  0.00  0.00  1.00  0.00  0.00  0.00
 TTTTTTTTTTTTTTTTTTTTTTTTTTTTTT END         TELAPSE      176.20 TCPU      173.69
 EEEEEEEEEE TERMINATION  DATE 31 10 2022 TIME 17:14:45.2
NODE    0 CPU TIME =       173.693
    TOTAL CPU TIME =     22311.655
Note: The following floating-point exceptions are signalling: IEEE_UNDERFLOW_FLAG IEEE_DENORMAL
Note: The following floating-point exceptions are signalling: IEEE_UNDERFLOW_FLAG IEEE_DENORMAL
Note: The following floating-point exceptions are signalling: IEEE_UNDERFLOW_FLAG IEEE_DENORMAL
Note: The following floating-point exceptions are signalling: IEEE_UNDERFLOW_FLAG IEEE_DENORMAL
Note: The following floating-point exceptions are signalling: IEEE_UNDERFLOW_FLAG IEEE_DENORMAL
Note: The following floating-point exceptions are signalling: IEEE_UNDERFLOW_FLAG IEEE_DENORMAL
Note: The following floating-point exceptions are signalling: IEEE_UNDERFLOW_FLAG IEEE_DENORMAL
Note: The following floating-point exceptions are signalling: IEEE_UNDERFLOW_FLAG IEEE_DENORMAL
Note: The following floating-point exceptions are signalling: IEEE_UNDERFLOW_FLAG IEEE_DENORMAL
Note: The following floating-point exceptions are signalling: IEEE_UNDERFLOW_FLAG IEEE_DENORMAL
Note: The following floating-point exceptions are signalling: IEEE_UNDERFLOW_FLAG IEEE_DENORMAL
Note: The following floating-point exceptions are signalling: IEEE_UNDERFLOW_FLAG IEEE_DENORMAL
Note: The following floating-point exceptions are signalling: IEEE_UNDERFLOW_FLAG IEEE_DENORMAL
Note: The following floating-point exceptions are signalling: IEEE_UNDERFLOW_FLAG IEEE_DENORMAL
Note: The following floating-point exceptions are signalling: IEEE_UNDERFLOW_FLAG IEEE_DENORMAL
Note: The following floating-point exceptions are signalling: IEEE_UNDERFLOW_FLAG IEEE_DENORMAL
Note: The following floating-point exceptions are signalling: IEEE_UNDERFLOW_FLAG IEEE_DENORMAL
Note: The following floating-point exceptions are signalling: IEEE_UNDERFLOW_FLAG IEEE_DENORMAL
Note: The following floating-point exceptions are signalling: IEEE_UNDERFLOW_FLAG IEEE_DENORMAL
Note: The following floating-point exceptions are signalling: IEEE_UNDERFLOW_FLAG IEEE_DENORMAL
Note: The following floating-point exceptions are signalling: IEEE_UNDERFLOW_FLAG IEEE_DENORMAL
Note: The following floating-point exceptions are signalling: IEEE_UNDERFLOW_FLAG IEEE_DENORMAL
Note: The following floating-point exceptions are signalling: IEEE_UNDERFLOW_FLAG IEEE_DENORMAL
Note: The following floating-point exceptions are signalling: IEEE_UNDERFLOW_FLAG IEEE_DENORMAL
Note: The following floating-point exceptions are signalling: IEEE_UNDERFLOW_FLAG IEEE_DENORMAL
Note: The following floating-point exceptions are signalling: IEEE_UNDERFLOW_FLAG IEEE_DENORMAL
Note: The following floating-point exceptions are signalling: IEEE_UNDERFLOW_FLAG IEEE_DENORMAL
Note: The following floating-point exceptions are signalling: IEEE_UNDERFLOW_FLAG IEEE_DENORMAL
Note: The following floating-point exceptions are signalling: IEEE_UNDERFLOW_FLAG IEEE_DENORMAL
Note: The following floating-point exceptions are signalling: IEEE_UNDERFLOW_FLAG IEEE_DENORMAL
Note: The following floating-point exceptions are signalling: IEEE_UNDERFLOW_FLAG IEEE_DENORMAL
Note: The following floating-point exceptions are signalling: IEEE_UNDERFLOW_FLAG IEEE_DENORMAL
Note: The following floating-point exceptions are signalling: IEEE_UNDERFLOW_FLAG IEEE_DENORMAL
Note: The following floating-point exceptions are signalling: IEEE_UNDERFLOW_FLAG IEEE_DENORMAL
Note: The following floating-point exceptions are signalling: IEEE_UNDERFLOW_FLAG IEEE_DENORMAL
Note: The following floating-point exceptions are signalling: IEEE_UNDERFLOW_FLAG IEEE_DENORMAL
Note: The following floating-point exceptions are signalling: IEEE_UNDERFLOW_FLAG IEEE_DENORMAL
Note: The following floating-point exceptions are signalling: IEEE_UNDERFLOW_FLAG IEEE_DENORMAL
Note: The following floating-point exceptions are signalling: IEEE_UNDERFLOW_FLAG IEEE_DENORMAL
Note: The following floating-point exceptions are signalling: IEEE_UNDERFLOW_FLAG IEEE_DENORMAL
Note: The following floating-point exceptions are signalling: IEEE_UNDERFLOW_FLAG IEEE_DENORMAL
Note: The following floating-point exceptions are signalling: IEEE_UNDERFLOW_FLAG IEEE_DENORMAL
Note: The following floating-point exceptions are signalling: IEEE_UNDERFLOW_FLAG IEEE_DENORMAL
Note: The following floating-point exceptions are signalling: IEEE_UNDERFLOW_FLAG IEEE_DENORMAL
Note: The following floating-point exceptions are signalling: IEEE_UNDERFLOW_FLAG IEEE_DENORMAL
Note: The following floating-point exceptions are signalling: IEEE_UNDERFLOW_FLAG IEEE_DENORMAL
Note: The following floating-point exceptions are signalling: IEEE_UNDERFLOW_FLAG IEEE_DENORMAL
Note: The following floating-point exceptions are signalling: IEEE_UNDERFLOW_FLAG IEEE_DENORMAL
Note: The following floating-point exceptions are signalling: IEEE_UNDERFLOW_FLAG IEEE_DENORMAL
Note: The following floating-point exceptions are signalling: IEEE_UNDERFLOW_FLAG IEEE_DENORMAL
Note: The following floating-point exceptions are signalling: IEEE_UNDERFLOW_FLAG IEEE_DENORMAL
Note: The following floating-point exceptions are signalling: IEEE_UNDERFLOW_FLAG IEEE_DENORMAL
Note: The following floating-point exceptions are signalling: IEEE_UNDERFLOW_FLAG IEEE_DENORMAL
Note: The following floating-point exceptions are signalling: IEEE_UNDERFLOW_FLAG IEEE_DENORMAL
Note: The following floating-point exceptions are signalling: IEEE_UNDERFLOW_FLAG IEEE_DENORMAL
Note: The following floating-point exceptions are signalling: IEEE_UNDERFLOW_FLAG IEEE_DENORMAL
Note: The following floating-point exceptions are signalling: IEEE_UNDERFLOW_FLAG IEEE_DENORMAL
Note: The following floating-point exceptions are signalling: IEEE_UNDERFLOW_FLAG IEEE_DENORMAL
Note: The following floating-point exceptions are signalling: IEEE_UNDERFLOW_FLAG IEEE_DENORMAL
Note: The following floating-point exceptions are signalling: IEEE_UNDERFLOW_FLAG IEEE_DENORMAL
Note: The following floating-point exceptions are signalling: IEEE_UNDERFLOW_FLAG IEEE_DENORMAL
Note: The following floating-point exceptions are signalling: IEEE_UNDERFLOW_FLAG IEEE_DENORMAL
Note: The following floating-point exceptions are signalling: IEEE_UNDERFLOW_FLAG IEEE_DENORMAL
Note: The following floating-point exceptions are signalling: IEEE_UNDERFLOW_FLAG IEEE_DENORMAL
Note: The following floating-point exceptions are signalling: IEEE_UNDERFLOW_FLAG IEEE_DENORMAL
Note: The following floating-point exceptions are signalling: IEEE_UNDERFLOW_FLAG IEEE_DENORMAL
Note: The following floating-point exceptions are signalling: IEEE_UNDERFLOW_FLAG IEEE_DENORMAL
Note: The following floating-point exceptions are signalling: IEEE_UNDERFLOW_FLAG IEEE_DENORMAL
Note: The following floating-point exceptions are signalling: IEEE_UNDERFLOW_FLAG IEEE_DENORMAL
Note: The following floating-point exceptions are signalling: IEEE_UNDERFLOW_FLAG IEEE_DENORMAL
Note: The following floating-point exceptions are signalling: IEEE_UNDERFLOW_FLAG IEEE_DENORMAL
Note: The following floating-point exceptions are signalling: IEEE_UNDERFLOW_FLAG IEEE_DENORMAL
Note: The following floating-point exceptions are signalling: IEEE_UNDERFLOW_FLAG IEEE_DENORMAL
Note: The following floating-point exceptions are signalling: IEEE_UNDERFLOW_FLAG IEEE_DENORMAL
Note: The following floating-point exceptions are signalling: IEEE_UNDERFLOW_FLAG IEEE_DENORMAL
Note: The following floating-point exceptions are signalling: IEEE_UNDERFLOW_FLAG IEEE_DENORMAL
Note: The following floating-point exceptions are signalling: IEEE_UNDERFLOW_FLAG IEEE_DENORMAL
Note: The following floating-point exceptions are signalling: IEEE_UNDERFLOW_FLAG IEEE_DENORMAL
Note: The following floating-point exceptions are signalling: IEEE_UNDERFLOW_FLAG IEEE_DENORMAL
Note: The following floating-point exceptions are signalling: IEEE_UNDERFLOW_FLAG IEEE_DENORMAL
Note: The following floating-point exceptions are signalling: IEEE_UNDERFLOW_FLAG IEEE_DENORMAL
Note: The following floating-point exceptions are signalling: IEEE_UNDERFLOW_FLAG IEEE_DENORMAL
Note: The following floating-point exceptions are signalling: IEEE_UNDERFLOW_FLAG IEEE_DENORMAL
Note: The following floating-point exceptions are signalling: IEEE_UNDERFLOW_FLAG IEEE_DENORMAL
Note: The following floating-point exceptions are signalling: IEEE_UNDERFLOW_FLAG IEEE_DENORMAL
Note: The following floating-point exceptions are signalling: IEEE_UNDERFLOW_FLAG IEEE_DENORMAL
Note: The following floating-point exceptions are signalling: IEEE_UNDERFLOW_FLAG IEEE_DENORMAL
Note: The following floating-point exceptions are signalling: IEEE_UNDERFLOW_FLAG IEEE_DENORMAL
Note: The following floating-point exceptions are signalling: IEEE_UNDERFLOW_FLAG IEEE_DENORMAL
Note: The following floating-point exceptions are signalling: IEEE_UNDERFLOW_FLAG IEEE_DENORMAL
Note: The following floating-point exceptions are signalling: IEEE_UNDERFLOW_FLAG IEEE_DENORMAL
Note: The following floating-point exceptions are signalling: IEEE_UNDERFLOW_FLAG IEEE_DENORMAL
Note: The following floating-point exceptions are signalling: IEEE_UNDERFLOW_FLAG IEEE_DENORMAL
Note: The following floating-point exceptions are signalling: IEEE_UNDERFLOW_FLAG IEEE_DENORMAL
Note: The following floating-point exceptions are signalling: IEEE_UNDERFLOW_FLAG IEEE_DENORMAL
Note: The following floating-point exceptions are signalling: IEEE_UNDERFLOW_FLAG IEEE_DENORMAL
Note: The following floating-point exceptions are signalling: IEEE_UNDERFLOW_FLAG IEEE_DENORMAL
Note: The following floating-point exceptions are signalling: IEEE_UNDERFLOW_FLAG IEEE_DENORMAL
Note: The following floating-point exceptions are signalling: IEEE_UNDERFLOW_FLAG IEEE_DENORMAL
Note: The following floating-point exceptions are signalling: IEEE_UNDERFLOW_FLAG IEEE_DENORMAL
Note: The following floating-point exceptions are signalling: IEEE_UNDERFLOW_FLAG IEEE_DENORMAL
Note: The following floating-point exceptions are signalling: IEEE_UNDERFLOW_FLAG IEEE_DENORMAL
Note: The following floating-point exceptions are signalling: IEEE_UNDERFLOW_FLAG IEEE_DENORMAL
Note: The following floating-point exceptions are signalling: IEEE_UNDERFLOW_FLAG IEEE_DENORMAL
Note: The following floating-point exceptions are signalling: IEEE_UNDERFLOW_FLAG IEEE_DENORMAL
Note: The following floating-point exceptions are signalling: IEEE_UNDERFLOW_FLAG IEEE_DENORMAL
Note: The following floating-point exceptions are signalling: IEEE_UNDERFLOW_FLAG IEEE_DENORMAL
Note: The following floating-point exceptions are signalling: IEEE_UNDERFLOW_FLAG IEEE_DENORMAL
Note: The following floating-point exceptions are signalling: IEEE_UNDERFLOW_FLAG IEEE_DENORMAL
Note: The following floating-point exceptions are signalling: IEEE_UNDERFLOW_FLAG IEEE_DENORMAL
Note: The following floating-point exceptions are signalling: IEEE_UNDERFLOW_FLAG IEEE_DENORMAL
Note: The following floating-point exceptions are signalling: IEEE_UNDERFLOW_FLAG IEEE_DENORMAL
Note: The following floating-point exceptions are signalling: IEEE_UNDERFLOW_FLAG IEEE_DENORMAL
Note: The following floating-point exceptions are signalling: IEEE_UNDERFLOW_FLAG IEEE_DENORMAL
Note: The following floating-point exceptions are signalling: IEEE_UNDERFLOW_FLAG IEEE_DENORMAL
Note: The following floating-point exceptions are signalling: IEEE_UNDERFLOW_FLAG IEEE_DENORMAL
Note: The following floating-point exceptions are signalling: IEEE_UNDERFLOW_FLAG IEEE_DENORMAL
Note: The following floating-point exceptions are signalling: IEEE_UNDERFLOW_FLAG IEEE_DENORMAL
Note: The following floating-point exceptions are signalling: IEEE_UNDERFLOW_FLAG IEEE_DENORMAL
Note: The following floating-point exceptions are signalling: IEEE_UNDERFLOW_FLAG IEEE_DENORMAL
Note: The following floating-point exceptions are signalling: IEEE_UNDERFLOW_FLAG IEEE_DENORMAL
Note: The following floating-point exceptions are signalling: IEEE_UNDERFLOW_FLAG IEEE_DENORMAL
Note: The following floating-point exceptions are signalling: IEEE_UNDERFLOW_FLAG IEEE_DENORMAL
Note: The following floating-point exceptions are signalling: IEEE_UNDERFLOW_FLAG IEEE_DENORMAL
Note: The following floating-point exceptions are signalling: IEEE_UNDERFLOW_FLAG IEEE_DENORMAL
Note: The following floating-point exceptions are signalling: IEEE_UNDERFLOW_FLAG IEEE_DENORMAL
Note: The following floating-point exceptions are signalling: IEEE_UNDERFLOW_FLAG IEEE_DENORMAL
Note: The following floating-point exceptions are signalling: IEEE_UNDERFLOW_FLAG IEEE_DENORMAL
end_date Mon Oct 31 17:14:45 GMT 2022
 
TEMPORARY          SAVED (in /mnt/lustre/a2fs-work2/work/e05/e05/bcamino/quantum_computing/test_model/optgeom)
fort.34            graphene_1v_A.gui 1624     Oct 31 17:14
fort.33            graphene_1v_A.xyz 7005     Oct 31 17:14
fort.9             graphene_1v_A.f9  1916608  Oct 31 17:14
fort.98            graphene_1v_A.f98 4994310  Oct 31 17:14
SCFOUT.LOG         graphene_1v_A.SCFLOG87682    Oct 31 17:14
OPTINFO.DAT        graphene_1v_A.OPTINFO13506466 Oct 31 17:14
HESSOPT.DAT        graphene_1v_A.HESSOPT48960    Oct 31 17:14
opta001            opta002            
Disk usage:<du -m>
567	/mnt/lustre/a2fs-work2/work/e05/e05/bcamino/quantum_computing/test_model/optgeom/tmp_graphene_1v_A_
</du -m>
Filesystem                                          1K-blocks          Used     Available Use% Mounted on
10.253.102.2@o2ib1:10.253.102.3@o2ib1:/cls01097 3582178503216 1808929323272 1737055630148  52% /mnt/lustre/a2fs-work2
10.253.102.2@o2ib1:10.253.102.3@o2ib1:/cls01097 3582178503216 1808929323272 1737055630148  52% /mnt/lustre/a2fs-work2
