date:                Mon Oct 31 17:18:57 GMT 2022
hostname:            nid005741
system:              Linux nid005741 4.12.14-197.78_9.1.64-cray_shasta_c #1 SMP Wed Aug 25 14:56:40 UTC 2021 (4e2a900) x86_64 x86_64 x86_64 GNU/Linux
user:                bcamino
input:               /mnt/lustre/a2fs-work2/work/e05/e05/bcamino/quantum_computing/test_model/optgeom/graphene_2v_B.d12
output:              /mnt/lustre/a2fs-work2/work/e05/e05/bcamino/quantum_computing/test_model/optgeom/graphene_2v_B.out
executable script:   /work/e05/e05/bcamino/runCRYSTAL/Pcry_slurm
executable:          Pcrystal
Command:             srun --hint=nomultithread --distribution=block:block Pcrystal
Slurm JobID:         
temporary directory: /mnt/lustre/a2fs-work2/work/e05/e05/bcamino/quantum_computing/test_model/optgeom/tmp_graphene_2v_B_      
input data /mnt/lustre/a2fs-work2/work/e05/e05/bcamino/quantum_computing/test_model/optgeom/graphene_2v_B.d12
Final
EXTERNAL
SYMMREMO
OPTGEOM
ATOMONLY
END
END
6 8
0 0 6 2.0 1.0
  13575.349682      0.00022245814352
  2035.2333680      0.00172327382520
  463.22562359      0.00892557153140
  131.20019598      0.03572798450200
  42.853015891      0.11076259931000
  15.584185766      0.24295627626000
0 0 2 2.0 1.0
  6.2067138508      0.41440263448000
  2.5764896527      0.23744968655000
0 0 1 0.0 1.0
  0.4941102000      1.00000000000000
0 0 1 0.0 1.0
  0.1644071000      1.00000000000000
0 2 4 2.0 1.0
  34.697232244      0.00533336578050
  7.9582622826      0.03586410909200
  2.3780826883      0.14215873329000
  0.8143320818      0.34270471845000
0 2 1 0.0 1.0
  0.5662417100      1.00000000000000
0 2 1 0.0 1.0
  0.1973545000      1.00000000000000
0 3 1 0.0 1.0
  0.5791584200      1.00000000000000
99 0
ENDBS
DFT
PBE  
ENDDFT
TOLINTEG
8 8 8 8 16
SCFDIR
SHRINK
8 16  
MAXCYCLE
200
TOLDEE
9 
ENDSCF
input data /mnt/lustre/a2fs-work2/work/e05/e05/bcamino/quantum_computing/test_model/optgeom/graphene_2v_B.gui
         128 PROCESSORS WORKING

         
 *******************************************************************************
 *                                                                             *
 *                               CRYSTAL17                                     *
 *                      public : 1.0.2 - March 1st, 2018 STFC/Archer2 build    *
 *                       HTTP://WWW.CRYSTAL.UNITO.IT                           *
 *                                                                             *
 *                              MAIN AUTHORS                                   *
 *                                                                             *
 *  R. DOVESI(1,11), V.R. SAUNDERS(2), C. ROETTI(1,11), R. ORLANDO(1,11),      *
 *  C.M. ZICOVICH-WILSON(1,3), F. PASCALE(4), B. CIVALLERI(1,11),              *
 *  K. DOLL(5), N.M. HARRISON(2,6), I.J. BUSH(7), Ph. D'ARCO(8),               *
 *  M. LLUNELL(9), M. CAUSA'(10), Y. NOEL(8), L. MASCHIO(1,11), A. ERBA(1,11)  *
 *  M. RE'RAT(14), S. CASASSA(1,11)                                            *
 *                                                                             *
 *        CONTRIBUTIONS TO THE CODE HAVE ALSO BEEN GIVEN BY                    *
 *                                                                             *
 *  M. FERRABONE(1,11), M. DE LA PIERRE(1,11), M. FERRERO(1,11),               *
 *  J. BAIMA(1,11), E. ALBANESE(1,11), M.F. PEINTINGER(12), R. BAST(13),       *
 *  B. KIRTMAN(15), V. LACIVITA(1,11), R. DEMICHELIS(1,16)                     *
 *  G. BRANDEBURG(17), S. SALUSTRO(1,11), G. SANSONE(1,11)                     *
 *  M.T. RUGGIERO(18)                                                          *
 *                                                                             *
 * (1) THEORETICAL CHEMISTRY GROUP - UNIVERSITA' DI TORINO - TORINO (ITALY)    *
 * (2) COMPUTATIONAL SCIENCE & ENGINEERING DEPARTMENT - STFC DARESBURY (UK)    *
 * (3) UNIVERSIDAD AUTONOMA DEL ESTADO DE MORELOS - CUERNAVACA (MEXICO)        *
 * (4) UNIVERSITE' DE LORRAINE - NANCY (FRANCE)                                *
 * (5) UNIVERSITAET STUTTGART- STUTTGART (GERMANY)                             *
 * (6) IMPERIAL COLLEGE - LONDON (UK)                                          *
 * (7) OXFORD E-RESEARCH CENTRE - OXFORD (UK)                                  *
 * (8) UPMC - SORBONNE UNIVERSITES - PARIS (FRANCE)                            *
 * (9) UNIVERSIDAD DE BARCELONA - BARCELONA (SPAIN)                            *
 *(10) UNIVERSITA' DI NAPOLI "FEDERICO II" - NAPOLI (ITALY)                    *
 *(11) NIS - NANOSTRUCTURED INTERFACES AND SURFACES - TORINO (ITALY)           *
 *(12) MPI FUER CHEMISCHE ENERGIEKONVERSION - MUELHEIM AN DER RUHR (GERMANY)   *
 *(13) UNIVERSITY OF TROMSO - TROMSO (NORWAY)                                  *
 *(14) UNIVERSITE' DE PAU ET DES PAYS DE L'ADOUR - PAU (FRANCE)                *
 *(15) UNIVERSITY OF CALIFORNIA SANTA BARBARA - SANTA BARBARA (USA)            *
 *(16) CURTIN UNIVERSITY - PERTH (AUSTRALIA)                                   *
 *(17) UNIVERSITY COLLEGE LONDON - LONDON (UK)                                 *
 *(18) CAMBRIDGE UNIVERSITY - CAMBRIDGE (UK)                                   *
 *                                                                             *
 *******************************************************************************
 EEEEEEEEEE STARTING  DATE 31 10 2022 TIME 17:18:59.4
 Final                                                                           

 GEOMETRY INPUT FROM EXTERNAL FILE (FORTRAN UNIT 34)
 3D - CRYSTAL 

 *******************************************************************************
 LATTICE PARAMETERS  (ANGSTROMS AND DEGREES) - PRIMITIVE CELL
       A          B          C        ALPHA      BETA     GAMMA        VOLUME
    7.40317    7.40317    8.68504    90.00000  90.00000 120.00000    412.228566
 INFORMATION **** CHKGRP **** SPGR WITH NO INVERSION

 NUMBER OF IRREDUCIBLE ATOMS IN THE CELL:   16

 CARTESIAN COORDINATES (ANGSTROM) - IRREDUCIBLE ATOMS AND SYMMETRY RELATED

 AT.IRR.  AT  AT.N.          X                   Y                   Z
     1     1     6    1.233862070683E+00  7.123705986520E-01  2.605511400000E+00
     2     2     6    2.467724141366E+00  2.849482394607E+00  2.605511400000E+00
     3     3     6    3.701586212049E+00  4.986594190562E+00  2.605511400000E+00
     4     4     6    2.467724141366E+00 -1.424741197304E+00  2.605511400000E+00
     5     5     6    3.701586212049E+00  7.123705986520E-01  2.605511400000E+00
     6     6     6    4.935448282733E+00  2.849482394607E+00  2.605511400000E+00
     7     7     6    3.701586212049E+00 -3.561852993259E+00  2.605511400000E+00
     8     8     6    4.935448282733E+00 -1.424741197304E+00  2.605511400000E+00
     9     9     6    6.169310353416E+00  7.123705986520E-01  2.605511400000E+00
    10    10     6    1.233862070683E+00 -7.123705986520E-01  2.605511400000E+00
    11    11     6    2.467724141366E+00  1.424741197304E+00  2.605511400000E+00
    12    12     6    2.467724141366E+00 -2.849482394607E+00  2.605511400000E+00
    13    13     6    4.935448282733E+00  1.424741197304E+00  2.605511400000E+00
    14    14     6    3.701586212049E+00 -4.986594190562E+00  2.605511400000E+00
    15    15     6    4.935448282733E+00 -2.849482394607E+00  2.605511400000E+00
    16    16     6    6.169310353416E+00 -7.123705986520E-01  2.605511400000E+00

 SPACE  GROUP  N.                     :    1
 NUMBER OF SYMMETRY OPERATORS         :    1
 *******************************************************************************
 LATTICE PARAMETERS (ANGSTROMS AND DEGREES) - BOHR = 0.5291772083 ANGSTROM
 PRIMITIVE CELL - CENTRING CODE 1/0 VOLUME=   412.228566 - DENSITY  0.773 g/cm^3
         A              B              C           ALPHA      BETA       GAMMA 
     7.40317242     7.40317242     8.68503800    90.000000  90.000000 120.000000
 *******************************************************************************
 ATOMS IN THE ASYMMETRIC UNIT   16 - ATOMS IN THE UNIT CELL:   16
     ATOM                 X/A                 Y/B                 Z/C    
 *******************************************************************************
      1 T   6 C     1.111111111111E-01  2.222222222222E-01  3.000000000000E-01
      2 T   6 C     1.111111111111E-01 -4.444444444445E-01  3.000000000000E-01
      3 T   6 C     1.111111111111E-01 -1.111111111111E-01  3.000000000000E-01
      4 T   6 C     4.444444444445E-01  2.222222222222E-01  3.000000000000E-01
      5 T   6 C     4.444444444444E-01 -4.444444444444E-01  3.000000000000E-01
      6 T   6 C     4.444444444446E-01 -1.111111111110E-01  3.000000000000E-01
      7 T   6 C    -2.222222222222E-01  2.222222222222E-01  3.000000000000E-01
      8 T   6 C    -2.222222222221E-01 -4.444444444443E-01  3.000000000000E-01
      9 T   6 C    -2.222222222221E-01 -1.111111111110E-01  3.000000000000E-01
     10 T   6 C     2.222222222222E-01  1.111111111111E-01  3.000000000000E-01
     11 T   6 C     2.222222222222E-01  4.444444444445E-01  3.000000000000E-01
     12 T   6 C    -4.444444444445E-01  1.111111111111E-01  3.000000000000E-01
     13 T   6 C    -4.444444444443E-01 -2.222222222221E-01  3.000000000000E-01
     14 T   6 C    -1.111111111111E-01  1.111111111111E-01  3.000000000000E-01
     15 T   6 C    -1.111111111110E-01  4.444444444446E-01  3.000000000000E-01
     16 T   6 C    -1.111111111110E-01 -2.222222222221E-01  3.000000000000E-01

 T = ATOM BELONGING TO THE ASYMMETRIC UNIT
 *******************************************************************************
 * GEOMETRY EDITING - INPUT COORDINATES ARE GIVEN IN ANGSTROM         
 *******************************************************************************

 USE OF SYMMETRY WILL BE SUBSEQUENTLY SUSPENDED
 INFORMATION **** NEW DEFAULT **** FINALRUN 4 FOR GEOMETRY OPTIMIZATIONS
 INFORMATION **** NEW DEFAULT **** OPTGEOM OPTIMIZES BOTH ATOMIC COORDINATES AND CELL PARAMETERS
 INFORMATION **** NEW DEFAULT **** TOL. ON ATOMIC DISP TO REDEFINE REF. GEOMETRY: 0.8 Angs
 INFORMATION **** NEW DEFAULT **** N POINTS TO REDEFINE REF. GEOMETRY: N OF OPT DEGS OF FREEDOM
 INFORMATION **** NEW DEFAULT **** TOL. ON ENERGY TO REDEFINE REF. GEOMETRY: 10**-3*(5*N. ATOMS)
 INFORMATION **** ATOMONLY **** ONLY ATOMIC COORDINATES ARE OPTIMIZED

 IMPORTANT INFORMATION:
 THE COORDINATE SYSTEM ADOPTED IN THE OPTIMIZATION IS NOT IN
 GENERAL HOMOGENEOUS UNITS. FOR THIS REASON THE GRADIENT AND 
 HESSIAN MATRIX IN TERMS OF THIS SYSTEM ARE GIVEN WITHOUT
 UNITS. FOR MORE DETAILS SEE THE MANUAL.

 *******************************************************************************
 ATOMIC POSITIONS OPTIMIZATION CONTROL

 INITIAL TRUST RADIUS         0.50000 MAXIMUM TRUST RADIUS               4.00000
 MAXIMUM GRADIENT COMPONENT   0.00045 MAXIMUM DISPLACEMENT COMPONENT     0.00180
 R.M.S. OF GRADIENT COMPONENT 0.00030 R.M.S. OF DISPLACEMENT COMPONENTS  0.00120
 THRESHOLD ON ENERGY CHANGE 0.100E-06 EXTRAPOLATING POLYNOMIAL ORDER           2
 MAXIMUM ALLOWED NUMBER OF STEPS   -1 SORTING OF ENERGY POINTS:               NO
 ANALYTICAL  GRADIENT                 HESSIAN UPDATING                      BFGS
 STEP SIZE NUMERICAL GRADIENT 0.00100
 INITIAL HESSIAN MATRIX: SCHLEGEL MODEL 2
 *******************************************************************************


 GCALCO - MAX INDICES DIRECT LATTICE VECTOR    16    16    12
 NO.OF VECTORS CREATED 6999 STARS  379 RMAX   166.99060 BOHR

 GEOMETRY FOR WAVE FUNCTION - DIMENSIONALITY OF THE SYSTEM    3
 (NON PERIODIC DIRECTION: LATTICE PARAMETER FORMALLY SET TO 500)
 *******************************************************************************
 LATTICE PARAMETERS (ANGSTROMS AND DEGREES) - BOHR = 0.5291772083 ANGSTROM
 PRIMITIVE CELL - CENTRING CODE 1/0 VOLUME=   412.228566 - DENSITY  0.773 g/cm^3
         A              B              C           ALPHA      BETA       GAMMA 
     7.40317242     7.40317242     8.68503800    90.000000  90.000000 120.000000
 *******************************************************************************
 ATOMS IN THE ASYMMETRIC UNIT   16 - ATOMS IN THE UNIT CELL:   16
     ATOM                 X/A                 Y/B                 Z/C    
 *******************************************************************************
      1 T   6 C     1.111111111111E-01  2.222222222222E-01  3.000000000000E-01
      2 T   6 C     1.111111111111E-01 -4.444444444445E-01  3.000000000000E-01
      3 T   6 C     1.111111111111E-01 -1.111111111111E-01  3.000000000000E-01
      4 T   6 C     4.444444444445E-01  2.222222222222E-01  3.000000000000E-01
      5 T   6 C     4.444444444444E-01 -4.444444444444E-01  3.000000000000E-01
      6 T   6 C     4.444444444446E-01 -1.111111111110E-01  3.000000000000E-01
      7 T   6 C    -2.222222222222E-01  2.222222222222E-01  3.000000000000E-01
      8 T   6 C    -2.222222222221E-01 -4.444444444443E-01  3.000000000000E-01
      9 T   6 C    -2.222222222221E-01 -1.111111111110E-01  3.000000000000E-01
     10 T   6 C     2.222222222222E-01  1.111111111111E-01  3.000000000000E-01
     11 T   6 C     2.222222222222E-01  4.444444444445E-01  3.000000000000E-01
     12 T   6 C    -4.444444444445E-01  1.111111111111E-01  3.000000000000E-01
     13 T   6 C    -4.444444444443E-01 -2.222222222221E-01  3.000000000000E-01
     14 T   6 C    -1.111111111111E-01  1.111111111111E-01  3.000000000000E-01
     15 T   6 C    -1.111111111110E-01  4.444444444446E-01  3.000000000000E-01
     16 T   6 C    -1.111111111110E-01 -2.222222222221E-01  3.000000000000E-01

 T = ATOM BELONGING TO THE ASYMMETRIC UNIT

 ****    1 SYMMOPS - TRANSLATORS IN FRACTIONAL UNITS
 **** MATRICES AND TRANSLATORS IN THE CRYSTALLOGRAPHIC REFERENCE FRAME
   V INV                    ROTATION MATRICES                   TRANSLATORS
   1   1  1.00  0.00  0.00  0.00  1.00  0.00  0.00  0.00  1.00  0.00  0.00  0.00

 DIRECT LATTICE VECTORS CARTESIAN COMPONENTS (ANGSTROM)
          X                    Y                    Z
   0.370158621205E+01  -0.641133538787E+01   0.000000000000E+00
   0.370158621205E+01   0.641133538787E+01   0.000000000000E+00
   0.000000000000E+00   0.000000000000E+00   0.868503800000E+01


 CARTESIAN COORDINATES - PRIMITIVE CELL
 *******************************************************************************
 *      ATOM          X(ANGSTROM)         Y(ANGSTROM)         Z(ANGSTROM)
 *******************************************************************************
    1     6 C     1.233862070683E+00  7.123705986520E-01  2.605511400000E+00
    2     6 C     2.467724141366E+00  2.849482394607E+00  2.605511400000E+00
    3     6 C     3.701586212049E+00  4.986594190562E+00  2.605511400000E+00
    4     6 C     2.467724141366E+00 -1.424741197304E+00  2.605511400000E+00
    5     6 C     3.701586212049E+00  7.123705986520E-01  2.605511400000E+00
    6     6 C     4.935448282733E+00  2.849482394607E+00  2.605511400000E+00
    7     6 C     3.701586212049E+00 -3.561852993259E+00  2.605511400000E+00
    8     6 C     4.935448282733E+00 -1.424741197304E+00  2.605511400000E+00
    9     6 C     6.169310353416E+00  7.123705986520E-01  2.605511400000E+00
   10     6 C     1.233862070683E+00 -7.123705986520E-01  2.605511400000E+00
   11     6 C     2.467724141366E+00  1.424741197304E+00  2.605511400000E+00
   12     6 C     2.467724141366E+00 -2.849482394607E+00  2.605511400000E+00
   13     6 C     4.935448282733E+00  1.424741197304E+00  2.605511400000E+00
   14     6 C     3.701586212049E+00 -4.986594190562E+00  2.605511400000E+00
   15     6 C     4.935448282733E+00 -2.849482394607E+00  2.605511400000E+00
   16     6 C     6.169310353416E+00 -7.123705986520E-01  2.605511400000E+00

 *******************************************************************************
 LOCAL ATOMIC FUNCTIONS BASIS SET
 *******************************************************************************
   ATOM   X(AU)   Y(AU)   Z(AU)  N. TYPE  EXPONENT  S COEF   P COEF   D/F/G COEF
 *******************************************************************************
   1 C    2.332   1.346   4.924
                                  1 S  
                                         1.358E+04 2.225E-04 0.000E+00 0.000E+00
                                         2.035E+03 1.723E-03 0.000E+00 0.000E+00
                                         4.632E+02 8.926E-03 0.000E+00 0.000E+00
                                         1.312E+02 3.573E-02 0.000E+00 0.000E+00
                                         4.285E+01 1.108E-01 0.000E+00 0.000E+00
                                         1.558E+01 2.430E-01 0.000E+00 0.000E+00
                                  2 S  
                                         6.207E+00 4.144E-01 0.000E+00 0.000E+00
                                         2.576E+00 2.374E-01 0.000E+00 0.000E+00
                                  3 S  
                                         4.941E-01 1.000E+00 0.000E+00 0.000E+00
                                  4 S  
                                         1.644E-01 1.000E+00 0.000E+00 0.000E+00
                           5-     7 P  
                                         3.470E+01 0.000E+00 5.333E-03 0.000E+00
                                         7.958E+00 0.000E+00 3.586E-02 0.000E+00
                                         2.378E+00 0.000E+00 1.422E-01 0.000E+00
                                         8.143E-01 0.000E+00 3.427E-01 0.000E+00
                           8-    10 P  
                                         5.662E-01 0.000E+00 1.000E+00 0.000E+00
                          11-    13 P  
                                         1.974E-01 0.000E+00 1.000E+00 0.000E+00
                          14-    18 D  
                                         5.792E-01 0.000E+00 0.000E+00 1.000E+00
   2 C    4.663   5.385   4.924
   3 C    6.995   9.423   4.924
   4 C    4.663  -2.692   4.924
   5 C    6.995   1.346   4.924
   6 C    9.327   5.385   4.924
   7 C    6.995  -6.731   4.924
   8 C    9.327  -2.692   4.924
   9 C   11.658   1.346   4.924
  10 C    2.332  -1.346   4.924
  11 C    4.663   2.692   4.924
  12 C    4.663  -5.385   4.924
  13 C    9.327   2.692   4.924
  14 C    6.995  -9.423   4.924
  15 C    9.327  -5.385   4.924
  16 C   11.658  -1.346   4.924
 INFORMATION **** SET_MPP **** PCRYSTAL CALCULATION
 INFORMATION **** READM2 **** NEW DEFAULT: FOCK/KS MATRIX MIXING SET TO 30 %
 INFORMATION **** READM2 **** NEW DEFAULT: FULL DIRECT SCF MODE
 INFORMATION **** READM2 **** NEW DEFAULT: COULOMB BIPOLAR BUFFER SET TO 32 Mb
 INFORMATION **** READM2 **** NEW DEFAULT: EXCHANGE BIPOLAR BUFFER SET TO 32 Mb

 *******************************************************************************
 NEW DEFAULT: DFT INTEGRATION GRID INCREASED TO XLGRID
 NEW DEFAULT: DIIS ACCELERATOR ACTIVE
 USE KEYWORD NODIIS TO TURN IT OFF
 *******************************************************************************

 INFORMATION **** TOLINTEG **** COULOMB AND EXCHANGE SERIES TOLERANCES MODIFIED
 INFORMATION **** READM2 **** FULL DIRECT SCF (MONO AND BIEL INT) SELECTED
 INFORMATION **** MAXCYCLE **** MAX NUMBER OF SCF CYCLES SET TO         200
 INFORMATION **** TOLDEE **** SCF TOL ON TOTAL ENERGY SET TO           9
 *******************************************************************************
 N. OF ATOMS PER CELL        16  COULOMB OVERLAP TOL         (T1) 10**   -8
 NUMBER OF SHELLS           128  COULOMB PENETRATION TOL     (T2) 10**   -8
 NUMBER OF AO               288  EXCHANGE OVERLAP TOL        (T3) 10**   20
 N. OF ELECTRONS PER CELL    96  EXCHANGE PSEUDO OVP (F(G))  (T4) 10**   20
 CORE ELECTRONS PER CELL     32  EXCHANGE PSEUDO OVP (P(G))  (T5) 10**   20
 N. OF SYMMETRY OPERATORS     1  POLE ORDER IN MONO ZONE                  4
 *******************************************************************************
 TYPE OF CALCULATION :  RESTRICTED CLOSED SHELL
 KOHN-SHAM HAMILTONIAN

 (EXCHANGE)[CORRELATION] FUNCTIONAL:(PERDEW-BURKE-ERNZERHOF)[PERDEW-BURKE-ERNZERHOF]


 CAPPA:IS1  8;IS2  8;IS3  8; K PTS MONK NET 260; SYMMOPS:K SPACE   2;G SPACE   1

 *******************************************************************************
 MAX NUMBER OF SCF CYCLES     200  CONVERGENCE ON DELTAP        10**-19
 WEIGHT OF F(I) IN F(I+1)      30% CONVERGENCE ON ENERGY        10**- 9
 SHRINK. FACT.(MONKH.)    8  8  8  NUMBER OF K POINTS IN THE IBZ    260
 SHRINKING FACTOR(GILAT NET)   16  NUMBER OF K POINTS(GILAT NET)   2052
 *******************************************************************************
 *** K POINTS COORDINATES (OBLIQUE COORDINATES IN UNITS OF IS =  8)
   1-R(  0  0  0)   2-C(  1  0  0)   3-C(  2  0  0)   4-C(  3  0  0)
   5-R(  4  0  0)   6-C(  0  1  0)   7-C(  1  1  0)   8-C(  2  1  0)
   9-C(  3  1  0)  10-C(  4  1  0)  11-C(  5  1  0)  12-C(  6  1  0)
  13-C(  7  1  0)  14-C(  0  2  0)  15-C(  1  2  0)  16-C(  2  2  0)
  17-C(  3  2  0)  18-C(  4  2  0)  19-C(  5  2  0)  20-C(  6  2  0)
  21-C(  7  2  0)  22-C(  0  3  0)  23-C(  1  3  0)  24-C(  2  3  0)
  25-C(  3  3  0)  26-C(  4  3  0)  27-C(  5  3  0)  28-C(  6  3  0)
  29-C(  7  3  0)  30-R(  0  4  0)  31-C(  1  4  0)  32-C(  2  4  0)
  33-C(  3  4  0)  34-R(  4  4  0)  35-C(  0  0  1)  36-C(  1  0  1)
  37-C(  2  0  1)  38-C(  3  0  1)  39-C(  4  0  1)  40-C(  5  0  1)
  41-C(  6  0  1)  42-C(  7  0  1)  43-C(  0  1  1)  44-C(  1  1  1)
  45-C(  2  1  1)  46-C(  3  1  1)  47-C(  4  1  1)  48-C(  5  1  1)
  49-C(  6  1  1)  50-C(  7  1  1)  51-C(  0  2  1)  52-C(  1  2  1)
  53-C(  2  2  1)  54-C(  3  2  1)  55-C(  4  2  1)  56-C(  5  2  1)
  57-C(  6  2  1)  58-C(  7  2  1)  59-C(  0  3  1)  60-C(  1  3  1)
  61-C(  2  3  1)  62-C(  3  3  1)  63-C(  4  3  1)  64-C(  5  3  1)
  65-C(  6  3  1)  66-C(  7  3  1)  67-C(  0  4  1)  68-C(  1  4  1)
  69-C(  2  4  1)  70-C(  3  4  1)  71-C(  4  4  1)  72-C(  5  4  1)
  73-C(  6  4  1)  74-C(  7  4  1)  75-C(  0  5  1)  76-C(  1  5  1)
  77-C(  2  5  1)  78-C(  3  5  1)  79-C(  4  5  1)  80-C(  5  5  1)
  81-C(  6  5  1)  82-C(  7  5  1)  83-C(  0  6  1)  84-C(  1  6  1)
  85-C(  2  6  1)  86-C(  3  6  1)  87-C(  4  6  1)  88-C(  5  6  1)
  89-C(  6  6  1)  90-C(  7  6  1)  91-C(  0  7  1)  92-C(  1  7  1)
  93-C(  2  7  1)  94-C(  3  7  1)  95-C(  4  7  1)  96-C(  5  7  1)
  97-C(  6  7  1)  98-C(  7  7  1)  99-C(  0  0  2) 100-C(  1  0  2)
 101-C(  2  0  2) 102-C(  3  0  2) 103-C(  4  0  2) 104-C(  5  0  2)
 105-C(  6  0  2) 106-C(  7  0  2) 107-C(  0  1  2) 108-C(  1  1  2)
 109-C(  2  1  2) 110-C(  3  1  2) 111-C(  4  1  2) 112-C(  5  1  2)
 113-C(  6  1  2) 114-C(  7  1  2) 115-C(  0  2  2) 116-C(  1  2  2)
 117-C(  2  2  2) 118-C(  3  2  2) 119-C(  4  2  2) 120-C(  5  2  2)
 121-C(  6  2  2) 122-C(  7  2  2) 123-C(  0  3  2) 124-C(  1  3  2)
 125-C(  2  3  2) 126-C(  3  3  2) 127-C(  4  3  2) 128-C(  5  3  2)
 129-C(  6  3  2) 130-C(  7  3  2) 131-C(  0  4  2) 132-C(  1  4  2)
 133-C(  2  4  2) 134-C(  3  4  2) 135-C(  4  4  2) 136-C(  5  4  2)
 137-C(  6  4  2) 138-C(  7  4  2) 139-C(  0  5  2) 140-C(  1  5  2)
 141-C(  2  5  2) 142-C(  3  5  2) 143-C(  4  5  2) 144-C(  5  5  2)
 145-C(  6  5  2) 146-C(  7  5  2) 147-C(  0  6  2) 148-C(  1  6  2)
 149-C(  2  6  2) 150-C(  3  6  2) 151-C(  4  6  2) 152-C(  5  6  2)
 153-C(  6  6  2) 154-C(  7  6  2) 155-C(  0  7  2) 156-C(  1  7  2)
 157-C(  2  7  2) 158-C(  3  7  2) 159-C(  4  7  2) 160-C(  5  7  2)
 161-C(  6  7  2) 162-C(  7  7  2) 163-C(  0  0  3) 164-C(  1  0  3)
 165-C(  2  0  3) 166-C(  3  0  3) 167-C(  4  0  3) 168-C(  5  0  3)
 169-C(  6  0  3) 170-C(  7  0  3) 171-C(  0  1  3) 172-C(  1  1  3)
 173-C(  2  1  3) 174-C(  3  1  3) 175-C(  4  1  3) 176-C(  5  1  3)
 177-C(  6  1  3) 178-C(  7  1  3) 179-C(  0  2  3) 180-C(  1  2  3)
 181-C(  2  2  3) 182-C(  3  2  3) 183-C(  4  2  3) 184-C(  5  2  3)
 185-C(  6  2  3) 186-C(  7  2  3) 187-C(  0  3  3) 188-C(  1  3  3)
 189-C(  2  3  3) 190-C(  3  3  3) 191-C(  4  3  3) 192-C(  5  3  3)
 193-C(  6  3  3) 194-C(  7  3  3) 195-C(  0  4  3) 196-C(  1  4  3)
 197-C(  2  4  3) 198-C(  3  4  3) 199-C(  4  4  3) 200-C(  5  4  3)
 201-C(  6  4  3) 202-C(  7  4  3) 203-C(  0  5  3) 204-C(  1  5  3)
 205-C(  2  5  3) 206-C(  3  5  3) 207-C(  4  5  3) 208-C(  5  5  3)
 209-C(  6  5  3) 210-C(  7  5  3) 211-C(  0  6  3) 212-C(  1  6  3)
 213-C(  2  6  3) 214-C(  3  6  3) 215-C(  4  6  3) 216-C(  5  6  3)
 217-C(  6  6  3) 218-C(  7  6  3) 219-C(  0  7  3) 220-C(  1  7  3)
 221-C(  2  7  3) 222-C(  3  7  3) 223-C(  4  7  3) 224-C(  5  7  3)
 225-C(  6  7  3) 226-C(  7  7  3) 227-R(  0  0  4) 228-C(  1  0  4)
 229-C(  2  0  4) 230-C(  3  0  4) 231-R(  4  0  4) 232-C(  0  1  4)
 233-C(  1  1  4) 234-C(  2  1  4) 235-C(  3  1  4) 236-C(  4  1  4)
 237-C(  5  1  4) 238-C(  6  1  4) 239-C(  7  1  4) 240-C(  0  2  4)
 241-C(  1  2  4) 242-C(  2  2  4) 243-C(  3  2  4) 244-C(  4  2  4)
 245-C(  5  2  4) 246-C(  6  2  4) 247-C(  7  2  4) 248-C(  0  3  4)
 249-C(  1  3  4) 250-C(  2  3  4) 251-C(  3  3  4) 252-C(  4  3  4)
 253-C(  5  3  4) 254-C(  6  3  4) 255-C(  7  3  4) 256-R(  0  4  4)
 257-C(  1  4  4) 258-C(  2  4  4) 259-C(  3  4  4) 260-R(  4  4  4)

 DIRECT LATTICE VECTORS COMPON. (A.U.)     RECIP. LATTICE VECTORS COMPON. (A.U.) 
        X            Y            Z              X            Y            Z
    6.9949842  -12.1156680    0.0000000      0.4491208   -0.2593000    0.0000000
    6.9949842   12.1156680    0.0000000      0.4491208    0.2593000   -0.0000000
    0.0000000    0.0000000   16.4123433     -0.0000000    0.0000000    0.3828329

 DISK SPACE FOR EIGENVECTORS (FTN 10)    42467328 REALS

 SYMMETRY ADAPTION OF THE BLOCH FUNCTIONS DISABLED
 TTTTTTTTTTTTTTTTTTTTTTTTTTTTTT gordsh1     TELAPSE        2.24 TCPU        0.94

 MATRIX SIZE: P(G)  125880, F(G)   63132, P(G) IRR   63436, F(G) IRR   63436
 MAX G-VECTOR INDEX FOR 1- AND 2-ELECTRON INTEGRALS  27

 TTTTTTTTTTTTTTTTTTTTTTTTTTTTTT INPUT       TELAPSE        2.29 TCPU        0.99

 NEIGHBORS OF THE NON-EQUIVALENT ATOMS

 N = NUMBER OF NEIGHBORS AT DISTANCE R
    ATOM  N     R/ANG      R/AU   NEIGHBORS (ATOM LABELS AND CELL INDICES)
   1 C    3     1.4247     2.6924   10 C    0 0 0   11 C    0 0 0   14 C   -1 0 0
   1 C    6     2.4677     4.6633    2 C    0 0 0    3 C    0-1 0    4 C    0 0 0
                                     5 C    0 0 0    7 C   -1 0 0    9 C   -1-1 0
   1 C    2     2.8495     5.3847   15 C   -1 0 0   16 C   -1-1 0
   1 C    4     3.7695     7.1233   12 C    0 0 0   12 C   -1 0 0   13 C    0 0 0
                                    13 C   -1-1 0
   1 C    6     4.2742     8.0771    6 C    0 0 0    6 C   -1-1 0    6 C    0-1 0
                                     8 C    0 0 0    8 C   -1-1 0    8 C   -1 0 0
   1 C    6     4.9354     9.3266    2 C    0-1 0    3 C    0 0 0    4 C   -1 0 0
                                     5 C   -1-1 0    7 C    0 0 0    9 C    0 0 0

   2 C    2     1.4247     2.6924   11 C    0 0 0   15 C   -1 0 0
   2 C    6     2.4677     4.6633    1 C    0 0 0    3 C    0 0 0    5 C    0 0 0
                                     6 C    0 0 0    7 C   -1 0 0    8 C   -1 0 0
   2 C    3     2.8495     5.3847   13 C    0 0 0   14 C   -1 0 0   16 C   -1 0 0
   2 C    4     3.7695     7.1233   10 C    0 0 0   10 C    0 1 0   12 C   -1 0 0
                                    12 C    0 1 0
   2 C    6     4.2742     8.0771    4 C    0 0 0    4 C   -1 0 0    4 C    0 1 0
                                     9 C    0 0 0    9 C   -1-1 0    9 C   -1 0 0
   2 C    6     4.9354     9.3266    1 C    0 1 0    3 C    0-1 0    5 C   -1 0 0
                                     6 C   -1-1 0    7 C    0 1 0    8 C    0 0 0

   3 C    2     1.4247     2.6924   10 C    0 1 0   16 C   -1 0 0
   3 C    6     2.4677     4.6633    1 C    0 1 0    2 C    0 0 0    4 C    0 1 0
                                     6 C    0 0 0    8 C   -1 0 0    9 C   -1 0 0
   3 C    3     2.8495     5.3847   12 C    0 1 0   14 C   -1 1 0   15 C   -1 0 0
   3 C    4     3.7695     7.1233   11 C    0 0 0   11 C    0 1 0   13 C    0 0 0
                                    13 C   -1 0 0
   3 C    6     4.2742     8.0771    5 C    0 0 0    5 C   -1 0 0    5 C    0 1 0
                                     7 C   -1 0 0    7 C    0 1 0    7 C   -1 1 0
   3 C    6     4.9354     9.3266    1 C    0 0 0    2 C    0 1 0    4 C   -1 0 0
                                     6 C   -1 0 0    8 C    0 1 0    9 C    0 0 0

   4 C    2     1.4247     2.6924   10 C    0 0 0   12 C    0 0 0
   4 C    6     2.4677     4.6633    1 C    0 0 0    3 C    0-1 0    5 C    0 0 0
                                     6 C    0-1 0    7 C    0 0 0    8 C    0 0 0
   4 C    2     2.8495     5.3847   11 C    0 0 0   15 C    0 0 0
   4 C    6     3.7695     7.1233   13 C    0 0 0   13 C    0-1 0   14 C    0 0 0
                                    14 C   -1 0 0   16 C    0 0 0   16 C   -1-1 0
   4 C    6     4.2742     8.0771    2 C    0 0 0    2 C    1 0 0    2 C    0-1 0
                                     9 C    0 0 0    9 C   -1-1 0    9 C    0-1 0
   4 C    6     4.9354     9.3266    1 C    1 0 0    3 C    1 0 0    5 C    0-1 0
                                     6 C    0 0 0    7 C   -1 0 0    8 C   -1-1 0

   5 C    2     1.4247     2.6924   11 C    0 0 0   13 C    0 0 0
   5 C    6     2.4677     4.6633    1 C    0 0 0    2 C    0 0 0    4 C    0 0 0
                                     6 C    0 0 0    8 C    0 0 0    9 C    0 0 0
   5 C    2     2.8495     5.3847   10 C    0 0 0   16 C    0 0 0
   5 C    6     3.7695     7.1233   12 C    0 0 0   12 C    0 1 0   14 C   -1 0 0
                                    14 C    0 1 0   15 C    0 0 0   15 C   -1 0 0
   5 C    6     4.2742     8.0771    3 C    0 0 0    3 C    1 0 0    3 C    0-1 0
                                     7 C    0 0 0    7 C   -1 0 0    7 C    0 1 0
   5 C    6     4.9354     9.3266    1 C    1 1 0    2 C    1 0 0    4 C    0 1 0
                                     6 C    0-1 0    8 C   -1 0 0    9 C   -1-1 0

   6 C    2     1.4247     2.6924   12 C    0 1 0   13 C    0 0 0
   6 C    6     2.4677     4.6633    2 C    0 0 0    3 C    0 0 0    4 C    0 1 0
                                     5 C    0 0 0    7 C    0 1 0    9 C    0 0 0
   6 C    3     2.8495     5.3847   10 C    0 1 0   11 C    0 0 0   14 C    0 1 0
   6 C    4     3.7695     7.1233   15 C   -1 0 0   15 C    0 1 0   16 C    0 0 0
                                    16 C   -1 0 0
   6 C    6     4.2742     8.0771    1 C    0 0 0    1 C    1 1 0    1 C    0 1 0
                                     8 C    0 0 0    8 C   -1 0 0    8 C    0 1 0
   6 C    6     4.9354     9.3266    2 C    1 1 0    3 C    1 0 0    4 C    0 0 0
                                     5 C    0 1 0    7 C   -1 0 0    9 C   -1 0 0

   7 C    3     1.4247     2.6924   12 C    0 0 0   14 C    0 0 0   15 C    0 0 0
   7 C    6     2.4677     4.6633    1 C    1 0 0    2 C    1 0 0    4 C    0 0 0
                                     6 C    0-1 0    8 C    0 0 0    9 C    0-1 0
   7 C    2     2.8495     5.3847   11 C    1 0 0   13 C    0-1 0
   7 C    4     3.7695     7.1233   10 C    0 0 0   10 C    1 0 0   16 C    0 0 0
                                    16 C    0-1 0
   7 C    6     4.2742     8.0771    3 C    1 0 0    3 C    0-1 0    3 C    1-1 0
                                     5 C    0 0 0    5 C    1 0 0    5 C    0-1 0
   7 C    6     4.9354     9.3266    1 C    0 0 0    2 C    0-1 0    4 C    1 0 0
                                     6 C    1 0 0    8 C    0-1 0    9 C    0 0 0

   8 C    2     1.4247     2.6924   15 C    0 0 0   16 C    0 0 0
   8 C    6     2.4677     4.6633    2 C    1 0 0    3 C    1 0 0    4 C    0 0 0
                                     5 C    0 0 0    7 C    0 0 0    9 C    0 0 0
   8 C    2     2.8495     5.3847   12 C    0 0 0   13 C    0 0 0
   8 C    6     3.7695     7.1233   10 C    0 0 0   10 C    1 1 0   11 C    0 0 0
                                    11 C    1 0 0   14 C    0 0 0   14 C    0 1 0
   8 C    6     4.2742     8.0771    1 C    0 0 0    1 C    1 1 0    1 C    1 0 0
                                     6 C    0 0 0    6 C    1 0 0    6 C    0-1 0
   8 C    6     4.9354     9.3266    2 C    0 0 0    3 C    0-1 0    4 C    1 1 0
                                     5 C    1 0 0    7 C    0 1 0    9 C    0-1 0

   9 C    3     1.4247     2.6924   13 C    0 0 0   14 C    0 1 0   16 C    0 0 0
   9 C    6     2.4677     4.6633    1 C    1 1 0    3 C    1 0 0    5 C    0 0 0
                                     6 C    0 0 0    7 C    0 1 0    8 C    0 0 0
   9 C    2     2.8495     5.3847   10 C    1 1 0   12 C    0 1 0
   9 C    4     3.7695     7.1233   11 C    0 0 0   11 C    1 1 0   15 C    0 0 0
                                    15 C    0 1 0
   9 C    6     4.2742     8.0771    2 C    0 0 0    2 C    1 1 0    2 C    1 0 0
                                     4 C    0 0 0    4 C    1 1 0    4 C    0 1 0
   9 C    6     4.9354     9.3266    1 C    0 0 0    3 C    0 0 0    5 C    1 1 0
                                     6 C    1 0 0    7 C    0 0 0    8 C    0 1 0

  10 C    3     1.4247     2.6924    1 C    0 0 0    3 C    0-1 0    4 C    0 0 0
  10 C    4     2.4677     4.6633   11 C    0 0 0   12 C    0 0 0   14 C   -1 0 0
                                    16 C   -1-1 0
  10 C    3     2.8495     5.3847    5 C    0 0 0    6 C    0-1 0    9 C   -1-1 0
  10 C    6     3.7695     7.1233    2 C    0 0 0    2 C    0-1 0    7 C    0 0 0
                                     7 C   -1 0 0    8 C    0 0 0    8 C   -1-1 0
  10 C    6     4.2742     8.0771   13 C    0 0 0   13 C   -1-1 0   13 C    0-1 0
                                    15 C    0 0 0   15 C   -1-1 0   15 C   -1 0 0
  10 C    4     4.9354     9.3266   11 C    0-1 0   12 C   -1 0 0   14 C    0 0 0
                                    16 C    0 0 0

  11 C    3     1.4247     2.6924    1 C    0 0 0    2 C    0 0 0    5 C    0 0 0
  11 C    4     2.4677     4.6633   10 C    0 0 0   13 C    0 0 0   14 C   -1 0 0
                                    15 C   -1 0 0
  11 C    3     2.8495     5.3847    4 C    0 0 0    6 C    0 0 0    7 C   -1 0 0
  11 C    6     3.7695     7.1233    3 C    0 0 0    3 C    0-1 0    8 C    0 0 0
                                     8 C   -1 0 0    9 C    0 0 0    9 C   -1-1 0
  11 C    6     4.2742     8.0771   12 C    0 0 0   12 C   -1 0 0   12 C    0 1 0
                                    16 C    0 0 0   16 C   -1-1 0   16 C   -1 0 0
  11 C    4     4.9354     9.3266   10 C    0 1 0   13 C   -1-1 0   14 C    0 1 0
                                    15 C    0 0 0

  12 C    3     1.4247     2.6924    4 C    0 0 0    6 C    0-1 0    7 C    0 0 0
  12 C    4     2.4677     4.6633   10 C    0 0 0   13 C    0-1 0   14 C    0 0 0
                                    15 C    0 0 0
  12 C    3     2.8495     5.3847    3 C    0-1 0    8 C    0 0 0    9 C    0-1 0
  12 C    6     3.7695     7.1233    1 C    0 0 0    1 C    1 0 0    2 C    1 0 0
                                     2 C    0-1 0    5 C    0 0 0    5 C    0-1 0
  12 C    6     4.2742     8.0771   11 C    0 0 0   11 C    1 0 0   11 C    0-1 0
                                    16 C    0 0 0   16 C   -1-1 0   16 C    0-1 0
  12 C    4     4.9354     9.3266   10 C    1 0 0   13 C    0 0 0   14 C   -1 0 0
                                    15 C   -1-1 0

  13 C    3     1.4247     2.6924    5 C    0 0 0    6 C    0 0 0    9 C    0 0 0
  13 C    4     2.4677     4.6633   11 C    0 0 0   12 C    0 1 0   14 C    0 1 0
                                    16 C    0 0 0
  13 C    3     2.8495     5.3847    2 C    0 0 0    7 C    0 1 0    8 C    0 0 0
  13 C    6     3.7695     7.1233    1 C    0 0 0    1 C    1 1 0    3 C    0 0 0
                                     3 C    1 0 0    4 C    0 0 0    4 C    0 1 0
  13 C    6     4.2742     8.0771   10 C    0 0 0   10 C    1 1 0   10 C    0 1 0
                                    15 C    0 0 0   15 C   -1 0 0   15 C    0 1 0
  13 C    4     4.9354     9.3266   11 C    1 1 0   12 C    0 0 0   14 C   -1 0 0
                                    16 C   -1 0 0

  14 C    3     1.4247     2.6924    1 C    1 0 0    7 C    0 0 0    9 C    0-1 0
  14 C    6     2.4677     4.6633   10 C    1 0 0   11 C    1 0 0   12 C    0 0 0
                                    13 C    0-1 0   15 C    0 0 0   16 C    0-1 0
  14 C    3     2.8495     5.3847    2 C    1 0 0    3 C    1-1 0    6 C    0-1 0
  14 C    6     3.7695     7.1233    4 C    0 0 0    4 C    1 0 0    5 C    1 0 0
                                     5 C    0-1 0    8 C    0 0 0    8 C    0-1 0
  14 C    6     4.9354     9.3266   10 C    0 0 0   11 C    0-1 0   12 C    1 0 0
                                    13 C    1 0 0   15 C    0-1 0   16 C    0 0 0
  14 C    6     5.1370     9.7075    2 C    0-1 0    2 C    1-1 0    3 C    1 0 0
                                     3 C    0-1 0    6 C    1 0 0    6 C    1-1 0

  15 C    3     1.4247     2.6924    2 C    1 0 0    7 C    0 0 0    8 C    0 0 0
  15 C    4     2.4677     4.6633   11 C    1 0 0   12 C    0 0 0   14 C    0 0 0
                                    16 C    0 0 0
  15 C    3     2.8495     5.3847    1 C    1 0 0    3 C    1 0 0    4 C    0 0 0
  15 C    6     3.7695     7.1233    5 C    0 0 0    5 C    1 0 0    6 C    1 0 0
                                     6 C    0-1 0    9 C    0 0 0    9 C    0-1 0
  15 C    6     4.2742     8.0771   10 C    0 0 0   10 C    1 1 0   10 C    1 0 0
                                    13 C    0 0 0   13 C    1 0 0   13 C    0-1 0
  15 C    4     4.9354     9.3266   11 C    0 0 0   12 C    1 1 0   14 C    0 1 0
                                    16 C    0-1 0

  16 C    3     1.4247     2.6924    3 C    1 0 0    8 C    0 0 0    9 C    0 0 0
  16 C    4     2.4677     4.6633   10 C    1 1 0   13 C    0 0 0   14 C    0 1 0
                                    15 C    0 0 0
  16 C    3     2.8495     5.3847    1 C    1 1 0    2 C    1 0 0    5 C    0 0 0
  16 C    6     3.7695     7.1233    4 C    0 0 0    4 C    1 1 0    6 C    0 0 0
                                     6 C    1 0 0    7 C    0 0 0    7 C    0 1 0
  16 C    6     4.2742     8.0771   11 C    0 0 0   11 C    1 1 0   11 C    1 0 0
                                    12 C    0 0 0   12 C    1 1 0   12 C    0 1 0
  16 C    4     4.9354     9.3266   10 C    0 0 0   13 C    1 0 0   14 C    0 0 0
                                    15 C    0 1 0


 SYMMETRY ALLOWED INTERNAL DEGREE(S) OF FREEDOM:  45
 TTTTTTTTTTTTTTTTTTTTTTTTTTTTTT SYMM        TELAPSE        2.29 TCPU        0.99
 TTTTTTTTTTTTTTTTTTTTTTTTTTTTTT INT_SCREEN  TELAPSE        2.29 TCPU        1.00

 *******************************************************************************
 *                             OPTIMIZATION STARTS                             *
 *******************************************************************************
 RECLASIFICATION OF INDICES FOR INTEGRAL CALC ACCORDING TO DIFFERENT CRITERIA:
           FIXDELTE                  FIXDELTX              FIXDELTN
          0.10000000               0.80000000                 45
 DEFAULT MAX NUM OF POINTS  100
 *******************************************************************************

 *******************************************************************************
 COORDINATE OPTIMIZATION - POINT    1
 INFORMATION **** EXCBUF **** EXCH. BIPO BUFFER: WORDS USED =           0

 DFT PARAMETERS

     ATOM       ELECTRONS   NET CHARGE   R(ANGSTROM)
   1   6  C       6.0000      0.0000     0.77000000

 SIZE OF GRID=     532149
 TTTTTTTTTTTTTTTTTTTTTTTTTTTTTT MAKE_GRID2  TELAPSE        2.67 TCPU        1.37
 BECKE WEIGHT FUNCTION
 RADSAFE =     2.00
 TOLERANCES - DENSITY:10**- 6; POTENTIAL:10**- 9; GRID WGT:10**-14

 RADIAL INTEGRATION  - INTERVALS (POINTS,UPPER LIMIT):            1( 75,  4.0*R)

 ANGULAR INTEGRATION - INTERVALS (ACCURACY LEVEL [N. POINTS] UPPER LIMIT):
  1(  4[  86]   0.2)  2(  8[ 194]   0.5)  3( 12[ 350]   0.9)  4( 16[ 974]   3.5)
  5( 12[ 350]9999.0)
 TTTTTTTTTTTTTTTTTTTTTTTTTTTTTT INT_CALC    TELAPSE        2.70 TCPU        1.40

 *******************************************************************************
 Final                                                                           
 CRYSTAL - SCF - TYPE OF CALCULATION :  RESTRICTED CLOSED SHELL
 *******************************************************************************

 CAPPA:IS1  8;IS2  8;IS3  8; K PTS MONK NET 260; SYMMOPS:K SPACE   2;G SPACE   1

 TTTTTTTTTTTTTTTTTTTTTTTTTTTTTT SDIK        TELAPSE        2.76 TCPU        1.46

 AAAAAAAAAAAAAAAAAAAAAAAAAAAAAAAAAAAAAAAAAAAAAAAAAAAAAAAAAAAAAAAAAAAAAAAAAAAAAAA
         ATOMIC WAVEFUNCTION(S)


 NUCLEAR CHARGE  6.0  SYMMETRY SPECIES            S    P
 N. ELECTRONS    6.0  NUMBER OF PRIMITIVE GTOS   10    6
                      NUMBER OF CONTRACTED GTOS   4    3
                      NUMBER OF CLOSED SHELLS     2    0
                      OPEN SHELL OCCUPATION       0    2

  ZNUC SCFIT  TOTAL HF ENERGY   KINETIC ENERGY   VIRIAL THEOREM ACCURACY
   6.0  10   -3.768111494E+01  3.771190961E+01 -1.999183423E+00  3.4E-06

 AAAAAAAAAAAAAAAAAAAAAAAAAAAAAAAAAAAAAAAAAAAAAAAAAAAAAAAAAAAAAAAAAAAAAAAAAAAAAAA

 CHARGE NORMALIZATION FACTOR   1.00000000
 TOTAL ATOMIC CHARGES:
   6.0000000   6.0000000   6.0000000   6.0000000   6.0000000   6.0000000
   6.0000000   6.0000000   6.0000000   6.0000000   6.0000000   6.0000000
   6.0000000   6.0000000   6.0000000   6.0000000
 TTTTTTTTTTTTTTTTTTTTTTTTTTTTTT MOQGAD      TELAPSE        2.78 TCPU        1.47
 TTTTTTTTTTTTTTTTTTTTTTTTTTTTTT SHELLXN     TELAPSE        3.61 TCPU        2.31
 TTTTTTTTTTTTTTTTTTTTTTTTTTTTTT MONMO3      TELAPSE        3.68 TCPU        2.38
 NUMERICALLY INTEGRATED DENSITY     95.9998086008
 TTTTTTTTTTTTTTTTTTTTTTTTTTTTTT NUMDFT      TELAPSE        3.86 TCPU        2.55
 CYC   0 ETOT(AU) -6.125790749720E+02 DETOT -6.13E+02 tst  0.00E+00 PX  1.00E+00
 TTTTTTTTTTTTTTTTTTTTTTTTTTTTTT DIIS        TELAPSE        3.87 TCPU        2.56
 TTTTTTTTTTTTTTTTTTTTTTTTTTTTTT FDIK        TELAPSE        4.07 TCPU        2.76
 POSSIBLY CONDUCTING STATE - EFERMI(AU) -2.2228969E-01 (RES. CHARGE  9.74E-11;IT. 16)
 TTTTTTTTTTTTTTTTTTTTTTTTTTTTTT PDIG        TELAPSE        4.18 TCPU        2.87
 CHARGE NORMALIZATION FACTOR   1.00000000
 TOTAL ATOMIC CHARGES:
   6.0724552   5.8286659   5.8302086   5.9042854   5.8990575   5.8286644
   6.0704941   5.9042851   6.0724547   6.0969817   6.0967616   6.0968238
   6.0967623   6.0082958   6.0968214   6.0969823
 TTTTTTTTTTTTTTTTTTTTTTTTTTTTTT MOQGAD      TELAPSE        4.18 TCPU        2.87
 TTTTTTTTTTTTTTTTTTTTTTTTTTTTTT SHELLXN     TELAPSE        5.15 TCPU        3.84
 TTTTTTTTTTTTTTTTTTTTTTTTTTTTTT MONMO3      TELAPSE        5.22 TCPU        3.91
 NUMERICALLY INTEGRATED DENSITY     95.9998518966
 TTTTTTTTTTTTTTTTTTTTTTTTTTTTTT NUMDFT      TELAPSE        5.52 TCPU        4.21
 CYC   1 ETOT(AU) -6.085271728207E+02 DETOT  4.05E+00 tst  0.00E+00 PX  1.00E+00
 TTTTTTTTTTTTTTTTTTTTTTTTTTTTTT DIIS        TELAPSE        5.54 TCPU        4.22
 DIIS TEST: 0.91846E+00 AT SCF   CYCLE   1 - MIX   30 %
 TTTTTTTTTTTTTTTTTTTTTTTTTTTTTT FDIK        TELAPSE        5.75 TCPU        4.43
 POSSIBLY CONDUCTING STATE - EFERMI(AU) -1.8927281E-01 (RES. CHARGE  2.84E-13;IT. 14)
 TTTTTTTTTTTTTTTTTTTTTTTTTTTTTT PDIG        TELAPSE        5.87 TCPU        4.55
 CHARGE NORMALIZATION FACTOR   1.00000000
 TOTAL ATOMIC CHARGES:
   5.6698627   6.5836360   6.5716125   6.2962560   6.3250199   6.5836347
   5.6729627   6.2962561   5.6698624   5.7542730   5.7564648   5.7558553
   5.7564656   5.7977123   5.7558526   5.7542735
 TTTTTTTTTTTTTTTTTTTTTTTTTTTTTT MOQGAD      TELAPSE        5.87 TCPU        4.55
 TTTTTTTTTTTTTTTTTTTTTTTTTTTTTT SHELLXN     TELAPSE        6.83 TCPU        5.52
 TTTTTTTTTTTTTTTTTTTTTTTTTTTTTT MONMO3      TELAPSE        6.90 TCPU        5.59
 NUMERICALLY INTEGRATED DENSITY     95.9998239295
 TTTTTTTTTTTTTTTTTTTTTTTTTTTTTT NUMDFT      TELAPSE        7.20 TCPU        5.89
 CYC   2 ETOT(AU) -6.082707320161E+02 DETOT  2.56E-01 tst  6.58E-03 PX  1.54E-01
 TTTTTTTTTTTTTTTTTTTTTTTTTTTTTT DIIS        TELAPSE        7.22 TCPU        5.90
 DIIS TEST: 0.37684E+01 AT SCF   CYCLE   2 - DIIS ACTIVE - HISTORY:     2 CYCLES
 TTTTTTTTTTTTTTTTTTTTTTTTTTTTTT FDIK        TELAPSE        7.43 TCPU        6.11
 POSSIBLY CONDUCTING STATE - EFERMI(AU) -1.4691879E-01 (RES. CHARGE  3.77E-13;IT. 14)
 TTTTTTTTTTTTTTTTTTTTTTTTTTTTTT PDIG        TELAPSE        7.56 TCPU        6.24
 CHARGE NORMALIZATION FACTOR   1.00000000
 TOTAL ATOMIC CHARGES:
   6.1602611   5.7282005   5.7534451   6.3260589   6.2734430   5.7281989
   6.1591443   6.3260585   6.1602607   5.8979496   5.8938174   5.8958175
   5.8938181   6.0097614   5.8958148   5.8979502
 TTTTTTTTTTTTTTTTTTTTTTTTTTTTTT MOQGAD      TELAPSE        7.56 TCPU        6.24
 TTTTTTTTTTTTTTTTTTTTTTTTTTTTTT SHELLXN     TELAPSE        8.53 TCPU        7.21
 TTTTTTTTTTTTTTTTTTTTTTTTTTTTTT MONMO3      TELAPSE        8.60 TCPU        7.28
 NUMERICALLY INTEGRATED DENSITY     95.9998129187
 TTTTTTTTTTTTTTTTTTTTTTTTTTTTTT NUMDFT      TELAPSE        8.89 TCPU        7.57
 CYC   3 ETOT(AU) -6.085020763617E+02 DETOT -2.31E-01 tst  1.29E-02 PX  1.55E-01
 TTTTTTTTTTTTTTTTTTTTTTTTTTTTTT DIIS        TELAPSE        8.91 TCPU        7.59
 DIIS TEST: 0.12933E+01 AT SCF   CYCLE   3 - DIIS ACTIVE - HISTORY:     3 CYCLES
 TTTTTTTTTTTTTTTTTTTTTTTTTTTTTT FDIK        TELAPSE        9.12 TCPU        7.80
 POSSIBLY CONDUCTING STATE - EFERMI(AU) -1.6040754E-01 (RES. CHARGE  6.27E-12;IT. 16)
 TTTTTTTTTTTTTTTTTTTTTTTTTTTTTT PDIG        TELAPSE        9.24 TCPU        7.92
 CHARGE NORMALIZATION FACTOR   1.00000000
 TOTAL ATOMIC CHARGES:
   6.0463968   6.4379740   6.3819826   5.5593948   5.6378263   6.4379723
   6.0468929   5.5593947   6.0463963   5.9754982   5.9826617   5.9779203
   5.9826625   5.9736103   5.9779177   5.9754988
 TTTTTTTTTTTTTTTTTTTTTTTTTTTTTT MOQGAD      TELAPSE        9.24 TCPU        7.92
 TTTTTTTTTTTTTTTTTTTTTTTTTTTTTT SHELLXN     TELAPSE       10.21 TCPU        8.88
 TTTTTTTTTTTTTTTTTTTTTTTTTTTTTT MONMO3      TELAPSE       10.28 TCPU        8.95
 NUMERICALLY INTEGRATED DENSITY     95.9998222841
 TTTTTTTTTTTTTTTTTTTTTTTTTTTTTT NUMDFT      TELAPSE       10.57 TCPU        9.24
 CYC   4 ETOT(AU) -6.083800909462E+02 DETOT  1.22E-01 tst  2.88E-02 PX  1.87E-01
 TTTTTTTTTTTTTTTTTTTTTTTTTTTTTT DIIS        TELAPSE       10.59 TCPU        9.26
 DIIS TEST: 0.23497E+01 AT SCF   CYCLE   4 - DIIS ACTIVE - HISTORY:     4 CYCLES
 TTTTTTTTTTTTTTTTTTTTTTTTTTTTTT FDIK        TELAPSE       10.80 TCPU        9.47
 POSSIBLY CONDUCTING STATE - EFERMI(AU) -1.6977692E-01 (RES. CHARGE  1.71E-13;IT. 16)
 TTTTTTTTTTTTTTTTTTTTTTTTTTTTTT PDIG        TELAPSE       10.93 TCPU        9.60
 CHARGE NORMALIZATION FACTOR   1.00000000
 TOTAL ATOMIC CHARGES:
   5.9467013   6.0707554   6.0966470   6.0030326   6.0057812   6.0707542
   5.9465057   6.0030324   5.9467008   5.9980648   5.9974600   5.9978863
   5.9974608   5.9232684   5.9978836   5.9980654
 TTTTTTTTTTTTTTTTTTTTTTTTTTTTTT MOQGAD      TELAPSE       10.93 TCPU        9.60
 TTTTTTTTTTTTTTTTTTTTTTTTTTTTTT SHELLXN     TELAPSE       11.90 TCPU       10.57
 TTTTTTTTTTTTTTTTTTTTTTTTTTTTTT MONMO3      TELAPSE       11.97 TCPU       10.64
 NUMERICALLY INTEGRATED DENSITY     95.9998221450
 TTTTTTTTTTTTTTTTTTTTTTTTTTTTTT NUMDFT      TELAPSE       12.26 TCPU       10.93
 CYC   5 ETOT(AU) -6.086486338683E+02 DETOT -2.69E-01 tst  4.17E-03 PX  9.31E-02
 TTTTTTTTTTTTTTTTTTTTTTTTTTTTTT DIIS        TELAPSE       12.28 TCPU       10.95
 DIIS TEST: 0.81502E-01 AT SCF   CYCLE   5 - DIIS ACTIVE - HISTORY:     5 CYCLES
 TTTTTTTTTTTTTTTTTTTTTTTTTTTTTT FDIK        TELAPSE       12.49 TCPU       11.16
 POSSIBLY CONDUCTING STATE - EFERMI(AU) -1.7782110E-01 (RES. CHARGE  5.68E-14;IT. 18)
 TTTTTTTTTTTTTTTTTTTTTTTTTTTTTT PDIG        TELAPSE       12.62 TCPU       11.29
 CHARGE NORMALIZATION FACTOR   1.00000000
 TOTAL ATOMIC CHARGES:
   6.0411949   6.0852918   5.9160962   6.0592920   6.1405762   6.0852887
   6.0498212   6.0592925   6.0411943   5.9156993   5.9264679   5.9254760
   5.9264685   5.9866673   5.9254735   5.9156998
 TTTTTTTTTTTTTTTTTTTTTTTTTTTTTT MOQGAD      TELAPSE       12.63 TCPU       11.29
 TTTTTTTTTTTTTTTTTTTTTTTTTTTTTT SHELLXN     TELAPSE       13.59 TCPU       12.26
 TTTTTTTTTTTTTTTTTTTTTTTTTTTTTT MONMO3      TELAPSE       13.66 TCPU       12.33
 NUMERICALLY INTEGRATED DENSITY     95.9998265607
 TTTTTTTTTTTTTTTTTTTTTTTTTTTTTT NUMDFT      TELAPSE       13.96 TCPU       12.62
 CYC   6 ETOT(AU) -6.086498992342E+02 DETOT -1.27E-03 tst  6.23E-04 PX  3.55E-02
 TTTTTTTTTTTTTTTTTTTTTTTTTTTTTT DIIS        TELAPSE       13.98 TCPU       12.64
 DIIS TEST: 0.65386E-01 AT SCF   CYCLE   6 - DIIS ACTIVE - HISTORY:     6 CYCLES
 TTTTTTTTTTTTTTTTTTTTTTTTTTTTTT FDIK        TELAPSE       14.19 TCPU       12.85
 POSSIBLY CONDUCTING STATE - EFERMI(AU) -1.7582806E-01 (RES. CHARGE  1.73E-10;IT. 12)
 TTTTTTTTTTTTTTTTTTTTTTTTTTTTTT PDIG        TELAPSE       14.31 TCPU       12.97
 CHARGE NORMALIZATION FACTOR   1.00000000
 TOTAL ATOMIC CHARGES:
   6.0386607   5.8985399   6.2581889   6.1692624   5.8433346   5.8985419
   6.0120582   6.1692599   6.0386605   5.9716057   5.9391489   5.9440729
   5.9391499   5.9638394   5.9440700   5.9716063
 TTTTTTTTTTTTTTTTTTTTTTTTTTTTTT MOQGAD      TELAPSE       14.31 TCPU       12.97
 TTTTTTTTTTTTTTTTTTTTTTTTTTTTTT SHELLXN     TELAPSE       15.28 TCPU       13.94
 TTTTTTTTTTTTTTTTTTTTTTTTTTTTTT MONMO3      TELAPSE       15.35 TCPU       14.01
 NUMERICALLY INTEGRATED DENSITY     95.9998257363
 TTTTTTTTTTTTTTTTTTTTTTTTTTTTTT NUMDFT      TELAPSE       15.65 TCPU       14.31
 CYC   7 ETOT(AU) -6.086236322388E+02 DETOT  2.63E-02 tst  1.71E-03 PX  6.01E-02
 TTTTTTTTTTTTTTTTTTTTTTTTTTTTTT DIIS        TELAPSE       15.66 TCPU       14.33
 DIIS TEST: 0.25817E+00 AT SCF   CYCLE   7 - DIIS ACTIVE - HISTORY:     7 CYCLES
 TTTTTTTTTTTTTTTTTTTTTTTTTTTTTT FDIK        TELAPSE       15.88 TCPU       14.54
 POSSIBLY CONDUCTING STATE - EFERMI(AU) -1.7434091E-01 (RES. CHARGE  3.36E-11;IT. 12)
 TTTTTTTTTTTTTTTTTTTTTTTTTTTTTT PDIG        TELAPSE       16.01 TCPU       14.67
 CHARGE NORMALIZATION FACTOR   1.00000000
 TOTAL ATOMIC CHARGES:
   6.0202496   5.9783879   6.0405613   6.0415063   6.0998538   5.9783870
   6.0146111   6.0415064   6.0202493   5.9696721   5.9703245   5.9656980
   5.9703253   5.9532995   5.9656953   5.9696727
 TTTTTTTTTTTTTTTTTTTTTTTTTTTTTT MOQGAD      TELAPSE       16.01 TCPU       14.67
 TTTTTTTTTTTTTTTTTTTTTTTTTTTTTT SHELLXN     TELAPSE       16.97 TCPU       15.63
 TTTTTTTTTTTTTTTTTTTTTTTTTTTTTT MONMO3      TELAPSE       17.04 TCPU       15.70
 NUMERICALLY INTEGRATED DENSITY     95.9998244256
 TTTTTTTTTTTTTTTTTTTTTTTTTTTTTT NUMDFT      TELAPSE       17.45 TCPU       16.11
 CYC   8 ETOT(AU) -6.086562165839E+02 DETOT -3.26E-02 tst  6.85E-04 PX  4.59E-02
 TTTTTTTTTTTTTTTTTTTTTTTTTTTTTT DIIS        TELAPSE       17.47 TCPU       16.13
 DIIS TEST: 0.12309E-01 AT SCF   CYCLE   8 - DIIS ACTIVE - HISTORY:     8 CYCLES
 TTTTTTTTTTTTTTTTTTTTTTTTTTTTTT FDIK        TELAPSE       17.66 TCPU       16.32
 POSSIBLY CONDUCTING STATE - EFERMI(AU) -1.7471996E-01 (RES. CHARGE  5.22E-10;IT. 10)
 TTTTTTTTTTTTTTTTTTTTTTTTTTTTTT PDIG        TELAPSE       17.79 TCPU       16.44
 CHARGE NORMALIZATION FACTOR   1.00000000
 TOTAL ATOMIC CHARGES:
   6.0094794   6.0528256   5.9684284   6.1011090   5.9161944   6.0528227
   6.0222590   6.1011082   6.0094787   5.9667093   5.9606965   5.9758018
   5.9606971   5.9598807   5.9757992   5.9667098
 TTTTTTTTTTTTTTTTTTTTTTTTTTTTTT MOQGAD      TELAPSE       17.79 TCPU       16.44
 TTTTTTTTTTTTTTTTTTTTTTTTTTTTTT SHELLXN     TELAPSE       18.76 TCPU       17.41
 TTTTTTTTTTTTTTTTTTTTTTTTTTTTTT MONMO3      TELAPSE       18.83 TCPU       17.48
 NUMERICALLY INTEGRATED DENSITY     95.9998254695
 TTTTTTTTTTTTTTTTTTTTTTTTTTTTTT NUMDFT      TELAPSE       19.12 TCPU       17.77
 CYC   9 ETOT(AU) -6.086527119749E+02 DETOT  3.50E-03 tst  2.07E-04 PX  2.86E-02
 TTTTTTTTTTTTTTTTTTTTTTTTTTTTTT DIIS        TELAPSE       19.14 TCPU       17.80
 DIIS TEST: 0.41057E-01 AT SCF   CYCLE   9 - DIIS ACTIVE - HISTORY:     9 CYCLES
 TTTTTTTTTTTTTTTTTTTTTTTTTTTTTT FDIK        TELAPSE       19.36 TCPU       18.01
 POSSIBLY CONDUCTING STATE - EFERMI(AU) -1.7479997E-01 (RES. CHARGE  6.05E-12;IT. 10)
 TTTTTTTTTTTTTTTTTTTTTTTTTTTTTT PDIG        TELAPSE       19.49 TCPU       18.14
 CHARGE NORMALIZATION FACTOR   1.00000000
 TOTAL ATOMIC CHARGES:
   6.0160301   6.0390923   6.0227025   6.0458274   6.0083487   6.0390911
   6.0163428   6.0458266   6.0160297   5.9649502   5.9636931   5.9650128
   5.9636939   5.9633980   5.9650101   5.9649508
 TTTTTTTTTTTTTTTTTTTTTTTTTTTTTT MOQGAD      TELAPSE       19.49 TCPU       18.14
 TTTTTTTTTTTTTTTTTTTTTTTTTTTTTT SHELLXN     TELAPSE       20.45 TCPU       19.10
 TTTTTTTTTTTTTTTTTTTTTTTTTTTTTT MONMO3      TELAPSE       20.52 TCPU       19.17
 NUMERICALLY INTEGRATED DENSITY     95.9998249116
 TTTTTTTTTTTTTTTTTTTTTTTTTTTTTT NUMDFT      TELAPSE       20.82 TCPU       19.47
 CYC  10 ETOT(AU) -6.086574867302E+02 DETOT -4.77E-03 tst  1.06E-04 PX  1.58E-02
 TTTTTTTTTTTTTTTTTTTTTTTTTTTTTT DIIS        TELAPSE       20.84 TCPU       19.49
 DIIS TEST: 0.29935E-02 AT SCF   CYCLE  10 - DIIS ACTIVE - HISTORY:    10 CYCLES
 TTTTTTTTTTTTTTTTTTTTTTTTTTTTTT FDIK        TELAPSE       21.06 TCPU       19.70
 POSSIBLY CONDUCTING STATE - EFERMI(AU) -1.7498242E-01 (RES. CHARGE  4.30E-12;IT. 10)
 TTTTTTTTTTTTTTTTTTTTTTTTTTTTTT PDIG        TELAPSE       21.19 TCPU       19.83
 CHARGE NORMALIZATION FACTOR   1.00000000
 TOTAL ATOMIC CHARGES:
   6.0157921   6.0181707   6.0133925   6.0548873   6.0355018   6.0181659
   6.0191213   6.0548905   6.0157914   5.9656356   5.9648719   5.9680376
   5.9648724   5.9571974   5.9680353   5.9656363
 TTTTTTTTTTTTTTTTTTTTTTTTTTTTTT MOQGAD      TELAPSE       21.19 TCPU       19.83
 TTTTTTTTTTTTTTTTTTTTTTTTTTTTTT SHELLXN     TELAPSE       22.16 TCPU       20.80
 TTTTTTTTTTTTTTTTTTTTTTTTTTTTTT MONMO3      TELAPSE       22.23 TCPU       20.87
 NUMERICALLY INTEGRATED DENSITY     95.9998250510
 TTTTTTTTTTTTTTTTTTTTTTTTTTTTTT NUMDFT      TELAPSE       22.52 TCPU       21.16
 CYC  11 ETOT(AU) -6.086577220290E+02 DETOT -2.35E-04 tst  1.86E-05 PX  6.75E-03
 TTTTTTTTTTTTTTTTTTTTTTTTTTTTTT DIIS        TELAPSE       22.55 TCPU       21.19
 DIIS TEST: 0.10342E-02 AT SCF   CYCLE  11 - DIIS ACTIVE - HISTORY:    11 CYCLES
 TTTTTTTTTTTTTTTTTTTTTTTTTTTTTT FDIK        TELAPSE       22.75 TCPU       21.39
 POSSIBLY CONDUCTING STATE - EFERMI(AU) -1.7472430E-01 (RES. CHARGE  7.89E-12;IT. 12)
 TTTTTTTTTTTTTTTTTTTTTTTTTTTTTT PDIG        TELAPSE       22.88 TCPU       21.52
 CHARGE NORMALIZATION FACTOR   1.00000000
 TOTAL ATOMIC CHARGES:
   6.0165707   6.0207538   6.0189852   6.0459831   6.0405759   6.0207680
   6.0139591   6.0459616   6.0165715   5.9670919   5.9669017   5.9663019
   5.9669036   5.9592826   5.9662975   5.9670918
 TTTTTTTTTTTTTTTTTTTTTTTTTTTTTT MOQGAD      TELAPSE       22.88 TCPU       21.52
 TTTTTTTTTTTTTTTTTTTTTTTTTTTTTT SHELLXN     TELAPSE       23.85 TCPU       22.49
 TTTTTTTTTTTTTTTTTTTTTTTTTTTTTT MONMO3      TELAPSE       23.92 TCPU       22.56
 NUMERICALLY INTEGRATED DENSITY     95.9998248314
 TTTTTTTTTTTTTTTTTTTTTTTTTTTTTT NUMDFT      TELAPSE       24.22 TCPU       22.85
 CYC  12 ETOT(AU) -6.086578427121E+02 DETOT -1.21E-04 tst  1.50E-06 PX  2.42E-03
 TTTTTTTTTTTTTTTTTTTTTTTTTTTTTT DIIS        TELAPSE       24.24 TCPU       22.88
 DIIS TEST: 0.78210E-04 AT SCF   CYCLE  12 - DIIS ACTIVE - HISTORY:    12 CYCLES
 TTTTTTTTTTTTTTTTTTTTTTTTTTTTTT FDIK        TELAPSE       25.10 TCPU       23.73
 POSSIBLY CONDUCTING STATE - EFERMI(AU) -1.7476464E-01 (RES. CHARGE  1.81E-12;IT. 10)
 TTTTTTTTTTTTTTTTTTTTTTTTTTTTTT PDIG        TELAPSE       25.23 TCPU       23.86
 CHARGE NORMALIZATION FACTOR   1.00000000
 TOTAL ATOMIC CHARGES:
   6.0157292   6.0213758   6.0225349   6.0431895   6.0431779   6.0213383
   6.0161645   6.0432454   6.0157259   5.9662523   5.9662844   5.9667448
   5.9662825   5.9589533   5.9667466   5.9662547
 TTTTTTTTTTTTTTTTTTTTTTTTTTTTTT MOQGAD      TELAPSE       25.23 TCPU       23.86
 TTTTTTTTTTTTTTTTTTTTTTTTTTTTTT SHELLXN     TELAPSE       26.20 TCPU       24.83
 TTTTTTTTTTTTTTTTTTTTTTTTTTTTTT MONMO3      TELAPSE       26.27 TCPU       24.90
 NUMERICALLY INTEGRATED DENSITY     95.9998248334
 TTTTTTTTTTTTTTTTTTTTTTTTTTTTTT NUMDFT      TELAPSE       26.67 TCPU       25.31
 CYC  13 ETOT(AU) -6.086578510307E+02 DETOT -8.32E-06 tst  1.69E-07 PX  8.76E-04
 TTTTTTTTTTTTTTTTTTTTTTTTTTTTTT DIIS        TELAPSE       26.70 TCPU       25.33
 DIIS TEST: 0.98034E-05 AT SCF   CYCLE  13 - DIIS ACTIVE - HISTORY:    13 CYCLES
 TTTTTTTTTTTTTTTTTTTTTTTTTTTTTT FDIK        TELAPSE       26.89 TCPU       25.52
 POSSIBLY CONDUCTING STATE - EFERMI(AU) -1.7477914E-01 (RES. CHARGE  1.27E-10;IT.  8)
 TTTTTTTTTTTTTTTTTTTTTTTTTTTTTT PDIG        TELAPSE       27.02 TCPU       25.65
 CHARGE NORMALIZATION FACTOR   1.00000000
 TOTAL ATOMIC CHARGES:
   6.0159925   6.0223687   6.0223841   6.0430226   6.0427585   6.0225142
   6.0154772   6.0427625   6.0160035   5.9662799   5.9663230   5.9662265
   5.9663349   5.9590760   5.9662040   5.9662718
 TTTTTTTTTTTTTTTTTTTTTTTTTTTTTT MOQGAD      TELAPSE       27.02 TCPU       25.65
 TTTTTTTTTTTTTTTTTTTTTTTTTTTTTT SHELLXN     TELAPSE       27.99 TCPU       26.62
 TTTTTTTTTTTTTTTTTTTTTTTTTTTTTT MONMO3      TELAPSE       28.06 TCPU       26.69
 NUMERICALLY INTEGRATED DENSITY     95.9998248416
 TTTTTTTTTTTTTTTTTTTTTTTTTTTTTT NUMDFT      TELAPSE       28.35 TCPU       26.98
 CYC  14 ETOT(AU) -6.086578517556E+02 DETOT -7.25E-07 tst  2.25E-08 PX  2.08E-04
 TTTTTTTTTTTTTTTTTTTTTTTTTTTTTT DIIS        TELAPSE       28.38 TCPU       27.01
 DIIS TEST: 0.12705E-05 AT SCF   CYCLE  14 - DIIS ACTIVE - HISTORY:    14 CYCLES
 TTTTTTTTTTTTTTTTTTTTTTTTTTTTTT FDIK        TELAPSE       28.59 TCPU       27.22
 POSSIBLY CONDUCTING STATE - EFERMI(AU) -1.7476701E-01 (RES. CHARGE  1.42E-14;IT.  8)
 TTTTTTTTTTTTTTTTTTTTTTTTTTTTTT PDIG        TELAPSE       28.72 TCPU       27.35
 CHARGE NORMALIZATION FACTOR   1.00000000
 TOTAL ATOMIC CHARGES:
   6.0158779   6.0230382   6.0221662   6.0421156   6.0424394   6.0221784
   6.0155024   6.0437923   6.0158099   5.9662042   5.9663369   5.9662784
   5.9662719   5.9593261   5.9663999   5.9662621
 TTTTTTTTTTTTTTTTTTTTTTTTTTTTTT MOQGAD      TELAPSE       28.72 TCPU       27.35
 TTTTTTTTTTTTTTTTTTTTTTTTTTTTTT SHELLXN     TELAPSE       29.69 TCPU       28.31
 TTTTTTTTTTTTTTTTTTTTTTTTTTTTTT MONMO3      TELAPSE       29.76 TCPU       28.38
 NUMERICALLY INTEGRATED DENSITY     95.9998248366
 TTTTTTTTTTTTTTTTTTTTTTTTTTTTTT NUMDFT      TELAPSE       30.05 TCPU       28.68
 CYC  15 ETOT(AU) -6.086578517465E+02 DETOT  9.09E-09 tst  1.66E-08 PX  1.85E-04
 TTTTTTTTTTTTTTTTTTTTTTTTTTTTTT DIIS        TELAPSE       30.08 TCPU       28.71
 DIIS TEST: 0.33826E-05 AT SCF   CYCLE  15 - DIIS ACTIVE - HISTORY:    15 CYCLES
 TTTTTTTTTTTTTTTTTTTTTTTTTTTTTT FDIK        TELAPSE       30.30 TCPU       28.92
 POSSIBLY CONDUCTING STATE - EFERMI(AU) -1.7476582E-01 (RES. CHARGE  1.93E-12;IT.  6)
 TTTTTTTTTTTTTTTTTTTTTTTTTTTTTT PDIG        TELAPSE       30.43 TCPU       29.05
 CHARGE NORMALIZATION FACTOR   1.00000000
 TOTAL ATOMIC CHARGES:
   6.0158306   6.0226388   6.0221401   6.0430574   6.0423565   6.0226582
   6.0155222   6.0428728   6.0158319   5.9662322   5.9662973   5.9663612
   5.9663004   5.9593276   5.9663481   5.9662247
 TTTTTTTTTTTTTTTTTTTTTTTTTTTTTT MOQGAD      TELAPSE       30.43 TCPU       29.05
 TTTTTTTTTTTTTTTTTTTTTTTTTTTTTT SHELLXN     TELAPSE       31.39 TCPU       30.01
 TTTTTTTTTTTTTTTTTTTTTTTTTTTTTT MONMO3      TELAPSE       31.47 TCPU       30.08
 NUMERICALLY INTEGRATED DENSITY     95.9998248363
 TTTTTTTTTTTTTTTTTTTTTTTTTTTTTT NUMDFT      TELAPSE       31.76 TCPU       30.38
 CYC  16 ETOT(AU) -6.086578521397E+02 DETOT -3.93E-07 tst  1.43E-08 PX  1.49E-04
 TTTTTTTTTTTTTTTTTTTTTTTTTTTTTT DIIS        TELAPSE       31.79 TCPU       30.41
 DIIS TEST: 0.12290E-06 AT SCF   CYCLE  16 - DIIS ACTIVE - HISTORY:    16 CYCLES
 TTTTTTTTTTTTTTTTTTTTTTTTTTTTTT FDIK        TELAPSE       32.00 TCPU       30.62
 POSSIBLY CONDUCTING STATE - EFERMI(AU) -1.7476859E-01 (RES. CHARGE  7.92E-12;IT.  6)
 TTTTTTTTTTTTTTTTTTTTTTTTTTTTTT PDIG        TELAPSE       32.13 TCPU       30.75
 CHARGE NORMALIZATION FACTOR   1.00000000
 TOTAL ATOMIC CHARGES:
   6.0158656   6.0226501   6.0221626   6.0429242   6.0422092   6.0227942
   6.0155594   6.0430245   6.0158769   5.9662331   5.9662884   5.9663349
   5.9662988   5.9592048   5.9663311   5.9662422
 TTTTTTTTTTTTTTTTTTTTTTTTTTTTTT MOQGAD      TELAPSE       32.13 TCPU       30.75
 TTTTTTTTTTTTTTTTTTTTTTTTTTTTTT SHELLXN     TELAPSE       33.10 TCPU       31.71
 TTTTTTTTTTTTTTTTTTTTTTTTTTTTTT MONMO3      TELAPSE       33.17 TCPU       31.78
 NUMERICALLY INTEGRATED DENSITY     95.9998248381
 TTTTTTTTTTTTTTTTTTTTTTTTTTTTTT NUMDFT      TELAPSE       33.46 TCPU       32.08
 CYC  17 ETOT(AU) -6.086578520822E+02 DETOT  5.75E-08 tst  7.96E-10 PX  3.47E-05
 TTTTTTTTTTTTTTTTTTTTTTTTTTTTTT DIIS        TELAPSE       33.49 TCPU       32.11
 DIIS TEST: 0.33221E-07 AT SCF   CYCLE  17 - DIIS ACTIVE - HISTORY:    17 CYCLES
 TTTTTTTTTTTTTTTTTTTTTTTTTTTTTT FDIK        TELAPSE       33.71 TCPU       32.32
 POSSIBLY CONDUCTING STATE - EFERMI(AU) -1.7476911E-01 (RES. CHARGE  0.00E+00;IT.  6)
 TTTTTTTTTTTTTTTTTTTTTTTTTTTTTT PDIG        TELAPSE       33.83 TCPU       32.45
 CHARGE NORMALIZATION FACTOR   1.00000000
 TOTAL ATOMIC CHARGES:
   6.0158722   6.0227517   6.0221699   6.0430043   6.0421970   6.0226857
   6.0155556   6.0429627   6.0158663   5.9662415   5.9662951   5.9663336
   5.9662914   5.9592033   5.9663316   5.9662383
 TTTTTTTTTTTTTTTTTTTTTTTTTTTTTT MOQGAD      TELAPSE       33.84 TCPU       32.45
 TTTTTTTTTTTTTTTTTTTTTTTTTTTTTT SHELLXN     TELAPSE       34.80 TCPU       33.41
 TTTTTTTTTTTTTTTTTTTTTTTTTTTTTT MONMO3      TELAPSE       34.87 TCPU       33.48
 NUMERICALLY INTEGRATED DENSITY     95.9998248385
 TTTTTTTTTTTTTTTTTTTTTTTTTTTTTT NUMDFT      TELAPSE       35.17 TCPU       33.78
 CYC  18 ETOT(AU) -6.086578520687E+02 DETOT  1.35E-08 tst  6.59E-10 PX  2.10E-05
 TTTTTTTTTTTTTTTTTTTTTTTTTTTTTT DIIS        TELAPSE       35.19 TCPU       33.80
 DIIS TEST: 0.10135E-07 AT SCF   CYCLE  18 - DIIS ACTIVE - HISTORY:    18 CYCLES
 TTTTTTTTTTTTTTTTTTTTTTTTTTTTTT FDIK        TELAPSE       35.41 TCPU       34.02
 POSSIBLY CONDUCTING STATE - EFERMI(AU) -1.7476998E-01 (RES. CHARGE  1.07E-11;IT.  6)
 TTTTTTTTTTTTTTTTTTTTTTTTTTTTTT PDIG        TELAPSE       35.54 TCPU       34.14
 CHARGE NORMALIZATION FACTOR   1.00000000
 TOTAL ATOMIC CHARGES:
   6.0158568   6.0226959   6.0221887   6.0430072   6.0421850   6.0226968
   6.0155388   6.0430083   6.0158567   5.9662439   5.9662919   5.9663368
   5.9662929   5.9592213   5.9663341   5.9662447
 TTTTTTTTTTTTTTTTTTTTTTTTTTTTTT MOQGAD      TELAPSE       35.54 TCPU       34.14
 TTTTTTTTTTTTTTTTTTTTTTTTTTTTTT SHELLXN     TELAPSE       36.50 TCPU       35.11
 TTTTTTTTTTTTTTTTTTTTTTTTTTTTTT MONMO3      TELAPSE       36.57 TCPU       35.18
 NUMERICALLY INTEGRATED DENSITY     95.9998248392
 TTTTTTTTTTTTTTTTTTTTTTTTTTTTTT NUMDFT      TELAPSE       36.99 TCPU       35.59
 CYC  19 ETOT(AU) -6.086578520389E+02 DETOT  2.97E-08 tst  6.47E-11 PX  1.06E-05
 TTTTTTTTTTTTTTTTTTTTTTTTTTTTTT DIIS        TELAPSE       37.01 TCPU       35.62
 DIIS TEST: 0.16076E-08 AT SCF   CYCLE  19 - DIIS ACTIVE - HISTORY:    19 CYCLES
 TTTTTTTTTTTTTTTTTTTTTTTTTTTTTT FDIK        TELAPSE       37.23 TCPU       35.83
 POSSIBLY CONDUCTING STATE - EFERMI(AU) -1.7476967E-01 (RES. CHARGE  4.26E-14;IT.  6)
 TTTTTTTTTTTTTTTTTTTTTTTTTTTTTT PDIG        TELAPSE       37.35 TCPU       35.96
 CHARGE NORMALIZATION FACTOR   1.00000000
 TOTAL ATOMIC CHARGES:
   6.0158623   6.0227014   6.0222008   6.0430023   6.0421736   6.0226999
   6.0155434   6.0430022   6.0158616   5.9662426   5.9662899   5.9663353
   5.9662906   5.9592185   5.9663326   5.9662431
 TTTTTTTTTTTTTTTTTTTTTTTTTTTTTT MOQGAD      TELAPSE       37.36 TCPU       35.96
 TTTTTTTTTTTTTTTTTTTTTTTTTTTTTT SHELLXN     TELAPSE       38.32 TCPU       36.93
 TTTTTTTTTTTTTTTTTTTTTTTTTTTTTT MONMO3      TELAPSE       38.39 TCPU       37.00
 NUMERICALLY INTEGRATED DENSITY     95.9998248389
 TTTTTTTTTTTTTTTTTTTTTTTTTTTTTT NUMDFT      TELAPSE       38.69 TCPU       37.29
 CYC  20 ETOT(AU) -6.086578520542E+02 DETOT -1.52E-08 tst  6.06E-12 PX  4.44E-06
 TTTTTTTTTTTTTTTTTTTTTTTTTTTTTT DIIS        TELAPSE       38.72 TCPU       37.32
 DIIS TEST: 0.91068E-10 AT SCF   CYCLE  20 - DIIS ACTIVE - HISTORY:    20 CYCLES
 TTTTTTTTTTTTTTTTTTTTTTTTTTTTTT FDIK        TELAPSE       38.94 TCPU       37.55
 POSSIBLY CONDUCTING STATE - EFERMI(AU) -1.7476976E-01 (RES. CHARGE  0.00E+00;IT.  6)
 TTTTTTTTTTTTTTTTTTTTTTTTTTTTTT PDIG        TELAPSE       39.07 TCPU       37.67
 CHARGE NORMALIZATION FACTOR   1.00000000
 TOTAL ATOMIC CHARGES:
   6.0158601   6.0227036   6.0222044   6.0430028   6.0421674   6.0227017
   6.0155433   6.0430023   6.0158601   5.9662432   5.9662902   5.9663351
   5.9662912   5.9592182   5.9663325   5.9662440
 TTTTTTTTTTTTTTTTTTTTTTTTTTTTTT MOQGAD      TELAPSE       39.07 TCPU       37.67
 TTTTTTTTTTTTTTTTTTTTTTTTTTTTTT SHELLXN     TELAPSE       40.04 TCPU       38.64
 TTTTTTTTTTTTTTTTTTTTTTTTTTTTTT MONMO3      TELAPSE       40.11 TCPU       38.71
 NUMERICALLY INTEGRATED DENSITY     95.9998248389
 TTTTTTTTTTTTTTTTTTTTTTTTTTTTTT NUMDFT      TELAPSE       40.41 TCPU       39.01
 CYC  21 ETOT(AU) -6.086578520522E+02 DETOT  2.01E-09 tst  7.12E-13 PX  1.05E-06
 TTTTTTTTTTTTTTTTTTTTTTTTTTTTTT DIIS        TELAPSE       40.44 TCPU       39.04
 DIIS TEST: 0.11500E-10 AT SCF   CYCLE  21 - DIIS ACTIVE - HISTORY:    21 CYCLES
 TTTTTTTTTTTTTTTTTTTTTTTTTTTTTT FDIK        TELAPSE       40.65 TCPU       39.25
 POSSIBLY CONDUCTING STATE - EFERMI(AU) -1.7476976E-01 (RES. CHARGE  7.74E-13;IT.  4)
 TTTTTTTTTTTTTTTTTTTTTTTTTTTTTT PDIG        TELAPSE       40.78 TCPU       39.38
 CHARGE NORMALIZATION FACTOR   1.00000000
 TOTAL ATOMIC CHARGES:
   6.0158610   6.0227027   6.0222051   6.0430020   6.0421689   6.0227016
   6.0155426   6.0430022   6.0158600   5.9662431   5.9662902   5.9663355
   5.9662907   5.9592180   5.9663329   5.9662435
 TTTTTTTTTTTTTTTTTTTTTTTTTTTTTT MOQGAD      TELAPSE       40.78 TCPU       39.38
 TTTTTTTTTTTTTTTTTTTTTTTTTTTTTT SHELLXN     TELAPSE       41.75 TCPU       40.34
 TTTTTTTTTTTTTTTTTTTTTTTTTTTTTT MONMO3      TELAPSE       41.82 TCPU       40.41
 NUMERICALLY INTEGRATED DENSITY     95.9998248389
 TTTTTTTTTTTTTTTTTTTTTTTTTTTTTT NUMDFT      TELAPSE       42.24 TCPU       40.83
 CYC  22 ETOT(AU) -6.086578520520E+02 DETOT  1.81E-10 tst  2.24E-14 PX  2.73E-07
 TTTTTTTTTTTTTTTTTTTTTTTTTTTTTT DIIS        TELAPSE       42.27 TCPU       40.86
 DIIS TEST: 0.30559E-11 AT SCF   CYCLE  22 - DIIS ACTIVE - HISTORY:    22 CYCLES
 TTTTTTTTTTTTTTTTTTTTTTTTTTTTTT FDIK        TELAPSE       42.46 TCPU       41.06
 POSSIBLY CONDUCTING STATE - EFERMI(AU) -1.7476976E-01 (RES. CHARGE  1.49E-13;IT.  4)
 TTTTTTTTTTTTTTTTTTTTTTTTTTTTTT PDIG        TELAPSE       42.59 TCPU       41.19
 CHARGE NORMALIZATION FACTOR   1.00000000
 TOTAL ATOMIC CHARGES:
   6.0158606   6.0227025   6.0222053   6.0430023   6.0421694   6.0227009
   6.0155427   6.0430020   6.0158603   5.9662430   5.9662901   5.9663354
   5.9662909   5.9592180   5.9663328   5.9662437
 TTTTTTTTTTTTTTTTTTTTTTTTTTTTTT MOQGAD      TELAPSE       42.59 TCPU       41.19
 TTTTTTTTTTTTTTTTTTTTTTTTTTTTTT SHELLXN     TELAPSE       43.56 TCPU       42.15
 +++ ENERGIES IN A.U. +++
 ::: EXT EL-POLE                                  -8.9916634032128E+02
 ::: EXT EL-SPHEROPOLE                             7.0575248151005E+00
 ::: BIELET ZONE E-E                               1.3309844454538E+03
 ::: TOTAL E-E                                     4.3887562994760E+02
 ::: TOTAL E-N + N-E                              -1.7084952908461E+03
 ::: TOTAL N-N                                     1.4141287100874E+02
 ::: KINETIC ENERGY                                6.0533928322295E+02
 ::: PSEUDO TOTAL   ENERGY                        -5.2286750666683E+02
 ::: VIRIAL COEFFICIENT                            1.0730998761000E+00
 TTTTTTTTTTTTTTTTTTTTTTTTTTTTTT MONMO3      TELAPSE       43.62 TCPU       42.22
 NUMERICALLY INTEGRATED DENSITY     95.9998248389
 TTTTTTTTTTTTTTTTTTTTTTTTTTTTTT NUMDFT      TELAPSE       43.92 TCPU       42.51
 CYC  23 ETOT(AU) -6.086578520519E+02 DETOT  2.48E-11 tst  5.59E-15 PX  2.73E-07

 == SCF ENDED - CONVERGENCE ON ENERGY      E(AU) -6.0865785205195E+02 CYCLES  23


 ENERGY EXPRESSION=HARTREE+FOCK EXCH*0.00000+(PBE        EXCH)*1.00000+PBE        CORR


 TOTAL ENERGY(DFT)(AU)( 23) -6.0865785205195E+02 DE 2.5E-11 tester 5.6E-15
 TTTTTTTTTTTTTTTTTTTTTTTTTTTTTT EDFT        TELAPSE       43.92 TCPU       42.51

 *******************************************************************************
 *                             FORCE CALCULATION                               *
 *******************************************************************************

 TTTTTTTTTTTTTTTTTTTTTTTTTTTTTT NUMDFG      TELAPSE       44.66 TCPU       43.26
 INFORMATION **** EXCPOG **** EXCH. BIPO BUFFER LENGTH (WORDS) =           0
 INFORMATION **** GENPOG **** BIPO BUFFER LENGTH (WORDS) =     1260000
 TTTTTTTTTTTTTTTTTTTTTTTTTTTTTT SHELXG      TELAPSE       47.94 TCPU       46.54

 CARTESIAN FORCES IN HARTREE/BOHR (ANALYTICAL)
   ATOM                     X                   Y                   Z
   1   6            -2.418574687980E-02  1.389110448593E-02  4.140584545767E-09
   2   6            -2.417569475538E-02 -1.376332415873E-02  6.967537416678E-09
   3   6             1.062213406122E-08  2.737781073781E-02 -4.179776498044E-09
   4   6            -7.223767221980E-03 -3.780674452368E-03 -1.970555225943E-09
   5   6             1.860656673180E-08  8.119833302844E-03 -2.168405318993E-08
   6   6             2.417568995057E-02 -1.376329871262E-02  2.460837604242E-09
   7   6            -4.964577082767E-10 -2.780743777761E-02 -1.122232044059E-08
   8   6             7.223768216701E-03 -3.780644468515E-03  6.065418473766E-09
   9   6             2.418573427541E-02  1.389108504285E-02  1.241464306801E-08
  10   6             1.493115586877E-02 -2.152656311346E-02  1.099331897951E-08
  11   6             2.575046366481E-02 -1.912428142624E-03 -2.060445105151E-09
  12   6            -1.122180592805E-02  2.327866480316E-02 -2.648502066956E-09
  13   6            -2.575046720271E-02 -1.912441043289E-03  2.259733424712E-09
  14   6             3.465933651192E-09 -6.377181083161E-05  1.011431187279E-08
  15   6             1.122179090449E-02  2.327865405450E-02 -5.380943282043E-09
  16   6            -1.493115309117E-02 -2.152656874686E-02 -6.269859369735E-09

 RESULTANT FORCE    -1.718070130607E-13  1.744888955546E-13 -6.979291276689E-14

 SYMMETRY ALLOWED FORCES (ANALYTICAL) (DIRECTION, FORCE)

    1 -2.4914048E-02    2 -1.4459054E-02    3  4.2763818E-09    4 -1.8390115E-03
    5 -2.9760895E-02    6  7.4978187E-09    7 -2.6405496E-02    8  1.1105876E-02
    9 -3.5141651E-09   10 -4.1946900E-03   11 -1.0731098E-02   12 -1.4963017E-09
   13 -1.1552024E-02   14  1.0830640E-03   15 -2.2216729E-08   16  1.9899562E-02
   17  1.1669470E-02   18  9.8616831E-10   19  2.2078573E-02   20 -1.6570112E-02
   21 -1.3333065E-08   22  6.4455577E-03   23  8.5163838E-04   24  3.4295964E-09
   25  1.4285309E-05   26  2.6115333E-02   27  1.0676403E-08   28  2.8148628E-02
   29  2.3708075E-03   30  1.0792843E-08   31  2.0624282E-02   32  2.3812378E-02
   33 -1.5294178E-09   34 -1.9799814E-02   35  7.4480909E-03   36 -2.5306142E-09
   37 -8.7584704E-03   38 -1.9457309E-02   39  2.4005332E-09   40  1.4217210E-03
   41  9.2778238E-04   42  1.3014721E-08   43 -1.8191021E-02   44  3.1856380E-02
   45  6.2855859E-10
 TTTTTTTTTTTTTTTTTTTTTTTTTTTTTT TOTGRA      TELAPSE       48.23 TCPU       46.82
 INFORMATION **** opta001 **** GEOMETRY OUTPUT FILE
 CLASSICAL MODEL (SCHLEGEL) USED AS INITIAL HESSIAN MATRIX
 REFERENCE GEOMETRY DEFINED

 MAX GRADIENT      0.031856  THRESHOLD              0.000450 CONVERGED NO
 RMS GRADIENT      0.014037  THRESHOLD              0.000300 CONVERGED NO

 GRADIENT NORM     0.094165  GRADIENT THRESHOLD     0.500000

 EIGENVALUES OF THE ESTIMATED HESSIAN
  0.1616E-02  0.2886E-02  0.3339E-02  0.4688E-02  0.6110E-02  0.1135E-01
  0.1156E-01  0.1543E-01  0.2497E-01  0.3282E-01  0.4842E-01  0.4884E-01
  0.6297E-01  0.7701E-01  0.8849E-01  0.8861E-01  0.9297E-01  0.1354    
  0.1355      0.1439      0.1760      0.2027      0.2197      0.3577    
  0.3579      0.4156      0.4156      0.4747      0.5194      0.5196    
  0.5567      0.7766      0.7766       1.028       1.038       1.038    
   1.079       1.079       1.124       1.178       1.194       1.194    
   1.211       1.467       1.468    

 INITIAL TRUST RADIUS    0.5000000000E+00

 PREDICTED ENERGY CHANGE    -0.510E-02

 INITIAL DISPLACEMENTS
 -0.018524 -0.011379  0.000000 -0.002350 -0.080053  0.000002 -0.067921  0.031831
  0.000000 -0.007169 -0.012774 -0.000000 -0.016094 -0.000034 -0.000003  0.060311
  0.035948 -0.000000  0.016539 -0.012699 -0.000001  0.006395  0.001839  0.000001
  0.000506  0.019829  0.000000  0.012964  0.014968  0.000000  0.020984  0.005172
  0.000000 -0.006166  0.020308 -0.000001  0.012722 -0.009540 -0.000001  0.010383
  0.006008  0.000000 -0.008877  0.013975  0.000000
 TTTTTTTTTTTTTTTTTTTTTTTTTTTTTT OPTI        TELAPSE       48.24 TCPU       46.83

 OPTOPTOPTOPTOPTOPTOPTOPTOPTOPTOPTOPTOPTOPTOPTOPTOPTOPTOPTOPTOPTOPTOPTOPTOPTOPT

 - INFORMATION ON SCF MOVED TO SCFOUT.LOG
 GEOMETRY OPTIMIZATION INFORMATION STORED IN OPTINFO.DAT

 OPTOPTOPTOPTOPTOPTOPTOPTOPTOPTOPTOPTOPTOPTOPTOPTOPTOPTOPTOPTOPTOPTOPTOPTOPTOPT
 *******************************************************************************
 COORDINATE OPTIMIZATION - POINT    2
 *******************************************************************************
 LATTICE PARAMETERS (ANGSTROMS AND DEGREES) - BOHR = 0.5291772083 ANGSTROM
 PRIMITIVE CELL - CENTRING CODE 1/0 VOLUME=   412.228566 - DENSITY  0.773 g/cm^3
         A              B              C           ALPHA      BETA       GAMMA 
     7.40317242     7.40317242     8.68503800    90.000000  90.000000 120.000000
 *******************************************************************************
 ATOMS IN THE ASYMMETRIC UNIT   16 - ATOMS IN THE UNIT CELL:   16
     ATOM                 X/A                 Y/B                 Z/C    
 *******************************************************************************
      1 T   6 C     1.093744153059E-01  2.213128634971E-01  3.000000254120E-01
      2 T   6 C     1.078729213861E-01 -4.507671352544E-01  3.000000937305E-01
      3 T   6 C     1.080539335891E-01 -1.080628852662E-01  2.999999987637E-01
      4 T   6 C     4.440634991942E-01  2.215310835694E-01  2.999999889830E-01
      5 T   6 C     4.440427505420E-01 -4.440408734130E-01  2.999998043724E-01
      6 T   6 C     4.507707006276E-01 -1.078756068749E-01  2.999999819723E-01
      7 T   6 C    -2.213489861216E-01  2.213514570499E-01  2.999999799630E-01
      8 T   6 C    -2.215402311196E-01 -4.440672311120E-01  3.000000561115E-01
      9 T   6 C    -2.213062753753E-01 -1.093640277768E-01  3.000000352302E-01
     10 T   6 C     2.236544958296E-01  1.122523915092E-01  3.000000269170E-01
     11 T   6 C     2.235504967130E-01  4.446410156728E-01  3.000000017250E-01
     12 T   6 C    -4.446376908351E-01  1.123392407199E-01  2.999999706482E-01
     13 T   6 C    -4.446354027662E-01 -2.235500562365E-01  2.999999527495E-01
     14 T   6 C    -1.110890073391E-01  1.110974130371E-01  3.000000334913E-01
     15 T   6 C    -1.123425538869E-01  4.446390303663E-01  3.000000278951E-01
     16 T   6 C    -1.122608435205E-01 -2.236589017091E-01  3.000000220353E-01

 T = ATOM BELONGING TO THE ASYMMETRIC UNIT

 TOTAL ENERGY(DFT)(AU)( 21) -6.0866502719013E+02     DE (AU)   -7.175E-03

 UPDATED TRUST RADIUS     0.100E+01

 SYMMETRY ALLOWED FORCES  (COORDINATE, FORCE)

    1 -7.6048506E-03    2 -4.3521010E-03    3  1.9774400E-08    4 -5.7400116E-04
    5 -1.3184467E-02    6  8.7216393E-08    7 -1.1602101E-02    8  5.1409332E-03
    9 -1.3819145E-08   10 -1.3146933E-03   11 -2.6374893E-03   12 -4.2365987E-09
   13 -3.1795840E-03   14 -1.2597934E-04   15 -1.0979935E-07   16  9.4328668E-03
   17  5.5101754E-03   18 -3.6818180E-08   19  6.9295239E-03   20 -5.0639873E-03
   21  2.1297782E-08   22  1.4905518E-03   23 -3.0474518E-04   24  2.4808951E-08
   25  1.8451124E-06   26  7.8806949E-03   27 -3.1392257E-08   28  1.1562839E-02
   29 -1.8276174E-04   30  2.6263439E-08   31  7.6807363E-03   32  1.0286275E-02
   33  2.0503401E-08   34 -8.4118346E-03   35  1.7947601E-03   36 -6.5383240E-09
   37 -4.9088937E-03   38 -8.0495211E-03   39  4.8412239E-08   40 -1.5595946E-04
   41 -8.4750873E-05   42  6.0818376E-09   43 -7.5350250E-03   44  1.3130217E-02
   45 -4.1321740E-08

 GRADIENT NORM     0.037132  GRADIENT THRESHOLD     0.500000

 EIGENVALUES OF THE ESTIMATED HESSIAN
  0.1616E-02  0.2886E-02  0.3339E-02  0.4688E-02  0.6110E-02  0.1135E-01
  0.1156E-01  0.1543E-01  0.2497E-01  0.3282E-01  0.4842E-01  0.4884E-01
  0.6297E-01  0.7701E-01  0.8849E-01  0.8860E-01  0.9297E-01  0.1354    
  0.1355      0.1439      0.1494      0.2027      0.2129      0.3577    
  0.3579      0.4156      0.4156      0.4455      0.5194      0.5196    
  0.5567      0.7766      0.7766      0.8504       1.038       1.038    
   1.079       1.079       1.100       1.124       1.194       1.194    
   1.211       1.467       1.468    

 PREDICTED ENERGY CHANGE    -0.149E-02

 MAX GRADIENT      0.013184  THRESHOLD              0.000450 CONVERGED NO
 RMS GRADIENT      0.005535  THRESHOLD              0.000300 CONVERGED NO
 MAX DISPLAC.      0.059969  THRESHOLD              0.001800 CONVERGED NO
 RMS DISPLAC.      0.016045  THRESHOLD              0.001200 CONVERGED NO
 TTTTTTTTTTTTTTTTTTTTTTTTTTTTTT OPTI        TELAPSE       91.58 TCPU       89.99
 *******************************************************************************
 COORDINATE OPTIMIZATION - POINT    3
 *******************************************************************************
 LATTICE PARAMETERS (ANGSTROMS AND DEGREES) - BOHR = 0.5291772083 ANGSTROM
 PRIMITIVE CELL - CENTRING CODE 1/0 VOLUME=   412.228566 - DENSITY  0.773 g/cm^3
         A              B              C           ALPHA      BETA       GAMMA 
     7.40317242     7.40317242     8.68503800    90.000000  90.000000 120.000000
 *******************************************************************************
 ATOMS IN THE ASYMMETRIC UNIT   16 - ATOMS IN THE UNIT CELL:   16
     ATOM                 X/A                 Y/B                 Z/C    
 *******************************************************************************
      1 T   6 C     1.088342866489E-01  2.210536955123E-01  3.000001691966E-01
      2 T   6 C     1.054367479713E-01 -4.555317106702E-01  3.000021509208E-01
      3 T   6 C     1.056963526776E-01 -1.057106086648E-01  3.000001556097E-01
      4 T   6 C     4.442317787686E-01  2.217412694138E-01  2.999998400015E-01
      5 T   6 C     4.440877692675E-01 -4.440799963791E-01  2.999976748493E-01
      6 T   6 C     4.555419848799E-01 -1.054387685600E-01  2.999984929940E-01
      7 T   6 C    -2.210375730214E-01  2.210414100230E-01  3.000003262222E-01
      8 T   6 C    -2.217585758075E-01 -4.442365093285E-01  3.000011990842E-01
      9 T   6 C    -2.210473355541E-01 -1.088253957733E-01  2.999997082204E-01
     10 T   6 C     2.249404244714E-01  1.132390204056E-01  3.000001331419E-01
     11 T   6 C     2.247704780702E-01  4.449554510775E-01  3.000001384287E-01
     12 T   6 C    -4.448753601667E-01  1.133201095144E-01  2.999995072443E-01
     13 T   6 C    -4.449456337950E-01 -2.247664448070E-01  2.999987617139E-01
     14 T   6 C    -1.110755745226E-01  1.110835602660E-01  3.000001482361E-01
     15 T   6 C    -1.133264423726E-01  4.448792557948E-01  3.000012091312E-01
     16 T   6 C    -1.132511052925E-01 -2.249465600456E-01  3.000003850052E-01

 T = ATOM BELONGING TO THE ASYMMETRIC UNIT

[...]

  10 C    1     1.4277     2.6979    3 C    0-1 0
  10 C    1     1.4298     2.7019    4 C    0 0 0
  10 C    1     1.4304     2.7030    1 C    0 0 0
  10 C    1     2.3853     4.5076   12 C    0 0 0
  10 C    1     2.4359     4.6032   11 C    0 0 0
  10 C    1     2.5138     4.7504   14 C   -1 0 0

  11 C    1     1.3963     2.6386    5 C    0 0 0
  11 C    1     1.3999     2.6454    2 C    0 0 0
  11 C    1     1.4330     2.7079    1 C    0 0 0
  11 C    1     2.4078     4.5501   15 C   -1 0 0
  11 C    1     2.4359     4.6032   10 C    0 0 0
  11 C    1     2.4740     4.6752   13 C    0 0 0

  12 C    1     1.4299     2.7020    6 C    0-1 0
  12 C    1     1.4312     2.7046    7 C    0 0 0
  12 C    1     1.4378     2.7170    4 C    0 0 0
  12 C    1     2.3853     4.5076   10 C    0 0 0
  12 C    1     2.4328     4.5973   15 C    0 0 0
  12 C    1     2.5216     4.7652   14 C    0 0 0

  13 C    1     1.4047     2.6546    5 C    0 0 0
  13 C    1     1.4910     2.8175    9 C    0 0 0
  13 C    1     1.5143     2.8616    6 C    0 0 0
  13 C    1     2.4740     4.6752   11 C    0 0 0
  13 C    1     2.4899     4.7052   14 C    0 1 0
  13 C    1     2.5393     4.7986   12 C    0 1 0

  14 C    1     1.4187     2.6809    9 C    0-1 0
  14 C    1     1.4201     2.6835    7 C    0 0 0
  14 C    1     1.4264     2.6956    1 C    1 0 0
  14 C    1     2.4777     4.6821   11 C    1 0 0
  14 C    1     2.4838     4.6937   15 C    0 0 0
  14 C    1     2.4851     4.6961   16 C    0-1 0

  15 C    1     1.3816     2.6109    8 C    0 0 0
  15 C    1     1.4174     2.6785    2 C    1 0 0
  15 C    1     1.4457     2.7320    7 C    0 0 0
  15 C    1     2.4078     4.5501   11 C    1 0 0
  15 C    1     2.4328     4.5973   12 C    0 0 0
  15 C    1     2.4838     4.6937   14 C    0 0 0

  16 C    1     1.4255     2.6937    8 C    0 0 0
  16 C    1     1.4794     2.7956    3 C    1 0 0
  16 C    1     1.4853     2.8068    9 C    0 0 0
  16 C    1     2.4850     4.6959   15 C    0 0 0
  16 C    1     2.4851     4.6961   14 C    0 1 0
  16 C    1     2.5357     4.7918   10 C    1 1 0


 FINAL OPTIMIZED GEOMETRY - DIMENSIONALITY OF THE SYSTEM      3
 (NON PERIODIC DIRECTION: LATTICE PARAMETER FORMALLY SET TO 500)
 *******************************************************************************
 LATTICE PARAMETERS (ANGSTROMS AND DEGREES) - BOHR = 0.5291772083 ANGSTROM
 PRIMITIVE CELL - CENTRING CODE 1/0 VOLUME=   412.228566 - DENSITY  0.773 g/cm^3
         A              B              C           ALPHA      BETA       GAMMA 
     7.40317242     7.40317242     8.68503800    90.000000  90.000000 120.000000
 *******************************************************************************
 ATOMS IN THE ASYMMETRIC UNIT   16 - ATOMS IN THE UNIT CELL:   16
     ATOM                 X/A                 Y/B                 Z/C    
 *******************************************************************************
      1 T   6 C     1.068613677743E-01  2.182258961242E-01  3.016191214425E-01
      2 T   6 C     1.000442925596E-01 -4.626311560460E-01  3.672526457869E-01
      3 T   6 C     1.300626543343E-01 -9.634255947275E-02  2.671564793649E-01
      4 T   6 C     4.570833011329E-01  2.464279545232E-01  2.871110681307E-01
      5 T   6 C     4.306882622544E-01 -4.436971033746E-01  3.239835647415E-01
      6 T   6 C     4.326833474351E-01 -1.027820659444E-01  2.866572429775E-01
      7 T   6 C    -2.249380934134E-01  2.136801632238E-01  3.073834754871E-01
      8 T   6 C    -2.018379940235E-01 -4.465541129820E-01  2.729158198285E-01
      9 T   6 C    -2.250199424668E-01 -1.187543615258E-01  2.869500669829E-01
     10 T   6 C     2.344988527474E-01  1.253987797559E-01  2.812118573872E-01
     11 T   6 C     2.133758037025E-01  4.381778411590E-01  3.307842904913E-01
     12 T   6 C    -4.470514180919E-01  1.193493565531E-01  2.990766415432E-01
     13 T   6 C    -4.572918216032E-01 -2.285951251377E-01  2.934506914214E-01
     14 T   6 C    -1.155283183643E-01  1.018460963557E-01  2.996871833253E-01
     15 T   6 C    -1.114543981332E-01  4.385114004598E-01  3.200894965289E-01
     16 T   6 C    -9.995367362109E-02 -2.244832258928E-01  2.746703545604E-01

 T = ATOM BELONGING TO THE ASYMMETRIC UNIT
 INFORMATION **** fort.34 **** GEOMETRY OUTPUT FILE

 DIRECT LATTICE VECTORS CARTESIAN COMPONENTS (ANGSTROM)
          X                    Y                    Z
   0.370158621205E+01  -0.641133538787E+01   0.000000000000E+00
   0.370158621205E+01   0.641133538787E+01   0.000000000000E+00
   0.000000000000E+00   0.000000000000E+00   0.868503800000E+01


 CARTESIAN COORDINATES - PRIMITIVE CELL
 *******************************************************************************
 *      ATOM          X(ANGSTROM)         Y(ANGSTROM)         Z(ANGSTROM)
 *******************************************************************************
    1     6 C     1.203338533759E+00  7.139953415626E-01  2.619573531254E+00
    2     6 C     2.359439677498E+00  2.803834372338E+00  3.189603184260E+00
    3     6 C     3.826404050257E+00  4.959775628588E+00  2.320264175230E+00
    4     6 C     2.604107563958E+00 -1.350582078362E+00  2.493570536936E+00
    5     6 C     3.653432865124E+00  8.053575505768E-01  2.813809571155E+00
    6     6 C     4.922744246952E+00  2.978287034087E+00  2.489629048235E+00
    7     6 C     3.659914012883E+00 -3.599206637324E+00  2.669637165178E+00
    8     6 C     5.003093140805E+00 -1.568957113460E+00  2.370284266011E+00
    9     6 C     6.130662200382E+00  6.813042795996E-01  2.492172235849E+00
   10     6 C     1.332192114223E+00 -6.994771587894E-01  2.442335667458E+00
   11     6 C     2.411781988230E+00  1.441281258009E+00  2.872874132720E+00
   12     6 C     2.488568779397E+00 -2.779950057670E+00  2.597491996715E+00
   13     6 C     4.864302759017E+00  1.466251223137E+00  2.548630406121E+00
   14     6 C     3.650940287711E+00 -5.017675110355E+00  2.602794575293E+00
   15     6 C     4.912215902415E+00 -2.885320201231E+00  2.779989440754E+00
   16     6 C     6.202241270177E+00 -7.984007253148E-01  2.385522466831E+00

 ****    1 SYMMOPS - TRANSLATORS IN FRACTIONAL UNITS
 **** MATRICES AND TRANSLATORS IN THE CRYSTALLOGRAPHIC REFERENCE FRAME
   V INV                    ROTATION MATRICES                   TRANSLATORS
   1   1  1.00  0.00  0.00  0.00  1.00  0.00  0.00  0.00  1.00  0.00  0.00  0.00
 TTTTTTTTTTTTTTTTTTTTTTTTTTTTTT END         TELAPSE     2443.46 TCPU     2420.94
 EEEEEEEEEE TERMINATION  DATE 31 10 2022 TIME 17:59:41.0
NODE    0 CPU TIME =      2420.940
    TOTAL CPU TIME =    311145.066
Note: The following floating-point exceptions are signalling: IEEE_UNDERFLOW_FLAG IEEE_DENORMAL
Note: The following floating-point exceptions are signalling: IEEE_UNDERFLOW_FLAG IEEE_DENORMAL
Note: The following floating-point exceptions are signalling: IEEE_UNDERFLOW_FLAG IEEE_DENORMAL
Note: The following floating-point exceptions are signalling: IEEE_UNDERFLOW_FLAG IEEE_DENORMAL
Note: The following floating-point exceptions are signalling: IEEE_UNDERFLOW_FLAG IEEE_DENORMAL
Note: The following floating-point exceptions are signalling: IEEE_UNDERFLOW_FLAG IEEE_DENORMAL
Note: The following floating-point exceptions are signalling: IEEE_UNDERFLOW_FLAG IEEE_DENORMAL
Note: The following floating-point exceptions are signalling: IEEE_UNDERFLOW_FLAG IEEE_DENORMAL
Note: The following floating-point exceptions are signalling: IEEE_UNDERFLOW_FLAG IEEE_DENORMAL
Note: The following floating-point exceptions are signalling: IEEE_UNDERFLOW_FLAG IEEE_DENORMAL
Note: The following floating-point exceptions are signalling: IEEE_UNDERFLOW_FLAG IEEE_DENORMAL
Note: The following floating-point exceptions are signalling: IEEE_UNDERFLOW_FLAG IEEE_DENORMAL
Note: The following floating-point exceptions are signalling: IEEE_UNDERFLOW_FLAG IEEE_DENORMAL
Note: The following floating-point exceptions are signalling: IEEE_UNDERFLOW_FLAG IEEE_DENORMAL
Note: The following floating-point exceptions are signalling: IEEE_UNDERFLOW_FLAG IEEE_DENORMAL
Note: The following floating-point exceptions are signalling: IEEE_UNDERFLOW_FLAG IEEE_DENORMAL
Note: The following floating-point exceptions are signalling: IEEE_UNDERFLOW_FLAG IEEE_DENORMAL
Note: The following floating-point exceptions are signalling: IEEE_UNDERFLOW_FLAG IEEE_DENORMAL
Note: The following floating-point exceptions are signalling: IEEE_UNDERFLOW_FLAG IEEE_DENORMAL
Note: The following floating-point exceptions are signalling: IEEE_UNDERFLOW_FLAG IEEE_DENORMAL
Note: The following floating-point exceptions are signalling: IEEE_UNDERFLOW_FLAG IEEE_DENORMAL
Note: The following floating-point exceptions are signalling: IEEE_UNDERFLOW_FLAG IEEE_DENORMAL
Note: The following floating-point exceptions are signalling: IEEE_UNDERFLOW_FLAG IEEE_DENORMAL
Note: The following floating-point exceptions are signalling: IEEE_UNDERFLOW_FLAG IEEE_DENORMAL
Note: The following floating-point exceptions are signalling: IEEE_UNDERFLOW_FLAG IEEE_DENORMAL
Note: The following floating-point exceptions are signalling: IEEE_UNDERFLOW_FLAG IEEE_DENORMAL
Note: The following floating-point exceptions are signalling: IEEE_UNDERFLOW_FLAG IEEE_DENORMAL
Note: The following floating-point exceptions are signalling: IEEE_UNDERFLOW_FLAG IEEE_DENORMAL
Note: The following floating-point exceptions are signalling: IEEE_UNDERFLOW_FLAG IEEE_DENORMAL
Note: The following floating-point exceptions are signalling: IEEE_UNDERFLOW_FLAG IEEE_DENORMAL
Note: The following floating-point exceptions are signalling: IEEE_UNDERFLOW_FLAG IEEE_DENORMAL
Note: The following floating-point exceptions are signalling: IEEE_UNDERFLOW_FLAG IEEE_DENORMAL
Note: The following floating-point exceptions are signalling: IEEE_UNDERFLOW_FLAG IEEE_DENORMAL
Note: The following floating-point exceptions are signalling: IEEE_UNDERFLOW_FLAG IEEE_DENORMAL
Note: The following floating-point exceptions are signalling: IEEE_UNDERFLOW_FLAG IEEE_DENORMAL
Note: The following floating-point exceptions are signalling: IEEE_UNDERFLOW_FLAG IEEE_DENORMAL
Note: The following floating-point exceptions are signalling: IEEE_UNDERFLOW_FLAG IEEE_DENORMAL
Note: The following floating-point exceptions are signalling: IEEE_UNDERFLOW_FLAG IEEE_DENORMAL
Note: The following floating-point exceptions are signalling: IEEE_UNDERFLOW_FLAG IEEE_DENORMAL
Note: The following floating-point exceptions are signalling: IEEE_UNDERFLOW_FLAG IEEE_DENORMAL
Note: The following floating-point exceptions are signalling: IEEE_UNDERFLOW_FLAG IEEE_DENORMAL
Note: The following floating-point exceptions are signalling: IEEE_UNDERFLOW_FLAG IEEE_DENORMAL
Note: The following floating-point exceptions are signalling: IEEE_UNDERFLOW_FLAG IEEE_DENORMAL
Note: The following floating-point exceptions are signalling: IEEE_UNDERFLOW_FLAG IEEE_DENORMAL
Note: The following floating-point exceptions are signalling: IEEE_UNDERFLOW_FLAG IEEE_DENORMAL
Note: The following floating-point exceptions are signalling: IEEE_UNDERFLOW_FLAG IEEE_DENORMAL
Note: The following floating-point exceptions are signalling: IEEE_UNDERFLOW_FLAG IEEE_DENORMAL
Note: The following floating-point exceptions are signalling: IEEE_UNDERFLOW_FLAG IEEE_DENORMAL
Note: The following floating-point exceptions are signalling: IEEE_UNDERFLOW_FLAG IEEE_DENORMAL
Note: The following floating-point exceptions are signalling: IEEE_UNDERFLOW_FLAG IEEE_DENORMAL
Note: The following floating-point exceptions are signalling: IEEE_UNDERFLOW_FLAG IEEE_DENORMAL
Note: The following floating-point exceptions are signalling: IEEE_UNDERFLOW_FLAG IEEE_DENORMAL
Note: The following floating-point exceptions are signalling: IEEE_UNDERFLOW_FLAG IEEE_DENORMAL
Note: The following floating-point exceptions are signalling: IEEE_UNDERFLOW_FLAG IEEE_DENORMAL
Note: The following floating-point exceptions are signalling: IEEE_UNDERFLOW_FLAG IEEE_DENORMAL
Note: The following floating-point exceptions are signalling: IEEE_UNDERFLOW_FLAG IEEE_DENORMAL
Note: The following floating-point exceptions are signalling: IEEE_UNDERFLOW_FLAG IEEE_DENORMAL
Note: The following floating-point exceptions are signalling: IEEE_UNDERFLOW_FLAG IEEE_DENORMAL
Note: The following floating-point exceptions are signalling: IEEE_UNDERFLOW_FLAG IEEE_DENORMAL
Note: The following floating-point exceptions are signalling: IEEE_UNDERFLOW_FLAG IEEE_DENORMAL
Note: The following floating-point exceptions are signalling: IEEE_UNDERFLOW_FLAG IEEE_DENORMAL
Note: The following floating-point exceptions are signalling: IEEE_UNDERFLOW_FLAG IEEE_DENORMAL
Note: The following floating-point exceptions are signalling: IEEE_UNDERFLOW_FLAG IEEE_DENORMAL
Note: The following floating-point exceptions are signalling: IEEE_UNDERFLOW_FLAG IEEE_DENORMAL
Note: The following floating-point exceptions are signalling: IEEE_UNDERFLOW_FLAG IEEE_DENORMAL
Note: The following floating-point exceptions are signalling: IEEE_UNDERFLOW_FLAG IEEE_DENORMAL
Note: The following floating-point exceptions are signalling: IEEE_UNDERFLOW_FLAG IEEE_DENORMAL
Note: The following floating-point exceptions are signalling: IEEE_UNDERFLOW_FLAG IEEE_DENORMAL
Note: The following floating-point exceptions are signalling: IEEE_UNDERFLOW_FLAG IEEE_DENORMAL
Note: The following floating-point exceptions are signalling: IEEE_UNDERFLOW_FLAG IEEE_DENORMAL
Note: The following floating-point exceptions are signalling: IEEE_UNDERFLOW_FLAG IEEE_DENORMAL
Note: The following floating-point exceptions are signalling: IEEE_UNDERFLOW_FLAG IEEE_DENORMAL
Note: The following floating-point exceptions are signalling: IEEE_UNDERFLOW_FLAG IEEE_DENORMAL
Note: The following floating-point exceptions are signalling: IEEE_UNDERFLOW_FLAG IEEE_DENORMAL
Note: The following floating-point exceptions are signalling: IEEE_UNDERFLOW_FLAG IEEE_DENORMAL
Note: The following floating-point exceptions are signalling: IEEE_UNDERFLOW_FLAG IEEE_DENORMAL
Note: The following floating-point exceptions are signalling: IEEE_UNDERFLOW_FLAG IEEE_DENORMAL
Note: The following floating-point exceptions are signalling: IEEE_UNDERFLOW_FLAG IEEE_DENORMAL
Note: The following floating-point exceptions are signalling: IEEE_UNDERFLOW_FLAG IEEE_DENORMAL
Note: The following floating-point exceptions are signalling: IEEE_UNDERFLOW_FLAG IEEE_DENORMAL
Note: The following floating-point exceptions are signalling: IEEE_UNDERFLOW_FLAG IEEE_DENORMAL
Note: The following floating-point exceptions are signalling: IEEE_UNDERFLOW_FLAG IEEE_DENORMAL
Note: The following floating-point exceptions are signalling: IEEE_UNDERFLOW_FLAG IEEE_DENORMAL
Note: The following floating-point exceptions are signalling: IEEE_UNDERFLOW_FLAG IEEE_DENORMAL
Note: The following floating-point exceptions are signalling: IEEE_UNDERFLOW_FLAG IEEE_DENORMAL
Note: The following floating-point exceptions are signalling: IEEE_UNDERFLOW_FLAG IEEE_DENORMAL
Note: The following floating-point exceptions are signalling: IEEE_UNDERFLOW_FLAG IEEE_DENORMAL
Note: The following floating-point exceptions are signalling: IEEE_UNDERFLOW_FLAG IEEE_DENORMAL
Note: The following floating-point exceptions are signalling: IEEE_UNDERFLOW_FLAG IEEE_DENORMAL
Note: The following floating-point exceptions are signalling: IEEE_UNDERFLOW_FLAG IEEE_DENORMAL
Note: The following floating-point exceptions are signalling: IEEE_UNDERFLOW_FLAG IEEE_DENORMAL
Note: The following floating-point exceptions are signalling: IEEE_UNDERFLOW_FLAG IEEE_DENORMAL
Note: The following floating-point exceptions are signalling: IEEE_UNDERFLOW_FLAG IEEE_DENORMAL
Note: The following floating-point exceptions are signalling: IEEE_UNDERFLOW_FLAG IEEE_DENORMAL
Note: The following floating-point exceptions are signalling: IEEE_UNDERFLOW_FLAG IEEE_DENORMAL
Note: The following floating-point exceptions are signalling: IEEE_UNDERFLOW_FLAG IEEE_DENORMAL
Note: The following floating-point exceptions are signalling: IEEE_UNDERFLOW_FLAG IEEE_DENORMAL
Note: The following floating-point exceptions are signalling: IEEE_UNDERFLOW_FLAG IEEE_DENORMAL
Note: The following floating-point exceptions are signalling: IEEE_UNDERFLOW_FLAG IEEE_DENORMAL
Note: The following floating-point exceptions are signalling: IEEE_UNDERFLOW_FLAG IEEE_DENORMAL
Note: The following floating-point exceptions are signalling: IEEE_UNDERFLOW_FLAG IEEE_DENORMAL
Note: The following floating-point exceptions are signalling: IEEE_UNDERFLOW_FLAG IEEE_DENORMAL
Note: The following floating-point exceptions are signalling: IEEE_UNDERFLOW_FLAG IEEE_DENORMAL
Note: The following floating-point exceptions are signalling: IEEE_UNDERFLOW_FLAG IEEE_DENORMAL
Note: The following floating-point exceptions are signalling: IEEE_UNDERFLOW_FLAG IEEE_DENORMAL
Note: The following floating-point exceptions are signalling: IEEE_UNDERFLOW_FLAG IEEE_DENORMAL
Note: The following floating-point exceptions are signalling: IEEE_UNDERFLOW_FLAG IEEE_DENORMAL
Note: The following floating-point exceptions are signalling: IEEE_UNDERFLOW_FLAG IEEE_DENORMAL
Note: The following floating-point exceptions are signalling: IEEE_UNDERFLOW_FLAG IEEE_DENORMAL
Note: The following floating-point exceptions are signalling: IEEE_UNDERFLOW_FLAG IEEE_DENORMAL
Note: The following floating-point exceptions are signalling: IEEE_UNDERFLOW_FLAG IEEE_DENORMAL
Note: The following floating-point exceptions are signalling: IEEE_UNDERFLOW_FLAG IEEE_DENORMAL
Note: The following floating-point exceptions are signalling: IEEE_UNDERFLOW_FLAG IEEE_DENORMAL
Note: The following floating-point exceptions are signalling: IEEE_UNDERFLOW_FLAG IEEE_DENORMAL
Note: The following floating-point exceptions are signalling: IEEE_UNDERFLOW_FLAG IEEE_DENORMAL
Note: The following floating-point exceptions are signalling: IEEE_UNDERFLOW_FLAG IEEE_DENORMAL
Note: The following floating-point exceptions are signalling: IEEE_UNDERFLOW_FLAG IEEE_DENORMAL
Note: The following floating-point exceptions are signalling: IEEE_UNDERFLOW_FLAG IEEE_DENORMAL
Note: The following floating-point exceptions are signalling: IEEE_UNDERFLOW_FLAG IEEE_DENORMAL
Note: The following floating-point exceptions are signalling: IEEE_UNDERFLOW_FLAG IEEE_DENORMAL
Note: The following floating-point exceptions are signalling: IEEE_UNDERFLOW_FLAG IEEE_DENORMAL
Note: The following floating-point exceptions are signalling: IEEE_UNDERFLOW_FLAG IEEE_DENORMAL
Note: The following floating-point exceptions are signalling: IEEE_UNDERFLOW_FLAG IEEE_DENORMAL
Note: The following floating-point exceptions are signalling: IEEE_UNDERFLOW_FLAG IEEE_DENORMAL
Note: The following floating-point exceptions are signalling: IEEE_UNDERFLOW_FLAG IEEE_DENORMAL
Note: The following floating-point exceptions are signalling: IEEE_UNDERFLOW_FLAG IEEE_DENORMAL
Note: The following floating-point exceptions are signalling: IEEE_UNDERFLOW_FLAG IEEE_DENORMAL
Note: The following floating-point exceptions are signalling: IEEE_UNDERFLOW_FLAG IEEE_DENORMAL
end_date Mon Oct 31 17:59:41 GMT 2022
 
TEMPORARY          SAVED (in /mnt/lustre/a2fs-work2/work/e05/e05/bcamino/quantum_computing/test_model/optgeom)
fort.34            graphene_2v_B.gui 1558     Oct 31 17:59
fort.33            graphene_2v_B.xyz 80991    Oct 31 17:59
fort.9             graphene_2v_B.f9  1725212  Oct 31 17:59
fort.98            graphene_2v_B.f98 4493253  Oct 31 17:59
SCFOUT.LOG         graphene_2v_B.SCFLOG1676383  Oct 31 17:59
OPTINFO.DAT        graphene_2v_B.OPTINFO12705868 Oct 31 17:59
HESSOPT.DAT        graphene_2v_B.HESSOPT43032    Oct 31 17:59
opta001            opta002            
Disk usage:<du -m>
491	/mnt/lustre/a2fs-work2/work/e05/e05/bcamino/quantum_computing/test_model/optgeom/tmp_graphene_2v_B_
</du -m>
Filesystem                                          1K-blocks          Used     Available Use% Mounted on
10.253.102.2@o2ib1:10.253.102.3@o2ib1:/cls01097 3582178503216 1810227945220 1735745346452  52% /mnt/lustre/a2fs-work2
10.253.102.2@o2ib1:10.253.102.3@o2ib1:/cls01097 3582178503216 1810227945220 1735745346452  52% /mnt/lustre/a2fs-work2
