date:                Mon Oct 31 19:41:00 GMT 2022
hostname:            nid005741
system:              Linux nid005741 4.12.14-197.78_9.1.64-cray_shasta_c #1 SMP Wed Aug 25 14:56:40 UTC 2021 (4e2a900) x86_64 x86_64 x86_64 GNU/Linux
user:                bcamino
input:               /mnt/lustre/a2fs-work2/work/e05/e05/bcamino/quantum_computing/test_model/optgeom/graphene_3v_C.d12
output:              /mnt/lustre/a2fs-work2/work/e05/e05/bcamino/quantum_computing/test_model/optgeom/graphene_3v_C.out
executable script:   /work/e05/e05/bcamino/runCRYSTAL/Pcry_slurm
executable:          Pcrystal
Command:             srun --hint=nomultithread --distribution=block:block Pcrystal
Slurm JobID:         
temporary directory: /mnt/lustre/a2fs-work2/work/e05/e05/bcamino/quantum_computing/test_model/optgeom/tmp_graphene_3v_C_      
input data /mnt/lustre/a2fs-work2/work/e05/e05/bcamino/quantum_computing/test_model/optgeom/graphene_3v_C.d12
Final
EXTERNAL
SYMMREMO
OPTGEOM
ATOMONLY
END
END
6 8
0 0 6 2.0 1.0
  13575.349682      0.00022245814352
  2035.2333680      0.00172327382520
  463.22562359      0.00892557153140
  131.20019598      0.03572798450200
  42.853015891      0.11076259931000
  15.584185766      0.24295627626000
0 0 2 2.0 1.0
  6.2067138508      0.41440263448000
  2.5764896527      0.23744968655000
0 0 1 0.0 1.0
  0.4941102000      1.00000000000000
0 0 1 0.0 1.0
  0.1644071000      1.00000000000000
0 2 4 2.0 1.0
  34.697232244      0.00533336578050
  7.9582622826      0.03586410909200
  2.3780826883      0.14215873329000
  0.8143320818      0.34270471845000
0 2 1 0.0 1.0
  0.5662417100      1.00000000000000
0 2 1 0.0 1.0
  0.1973545000      1.00000000000000
0 3 1 0.0 1.0
  0.5791584200      1.00000000000000
99 0
ENDBS
DFT
PBE  
ENDDFT
TOLINTEG
8 8 8 8 16
SCFDIR
SHRINK
8 16  
MAXCYCLE
200
TOLDEE
9 
ENDSCF
input data /mnt/lustre/a2fs-work2/work/e05/e05/bcamino/quantum_computing/test_model/optgeom/graphene_3v_C.gui
         128 PROCESSORS WORKING

         
 *******************************************************************************
 *                                                                             *
 *                               CRYSTAL17                                     *
 *                      public : 1.0.2 - March 1st, 2018 STFC/Archer2 build    *
 *                       HTTP://WWW.CRYSTAL.UNITO.IT                           *
 *                                                                             *
 *                              MAIN AUTHORS                                   *
 *                                                                             *
 *  R. DOVESI(1,11), V.R. SAUNDERS(2), C. ROETTI(1,11), R. ORLANDO(1,11),      *
 *  C.M. ZICOVICH-WILSON(1,3), F. PASCALE(4), B. CIVALLERI(1,11),              *
 *  K. DOLL(5), N.M. HARRISON(2,6), I.J. BUSH(7), Ph. D'ARCO(8),               *
 *  M. LLUNELL(9), M. CAUSA'(10), Y. NOEL(8), L. MASCHIO(1,11), A. ERBA(1,11)  *
 *  M. RE'RAT(14), S. CASASSA(1,11)                                            *
 *                                                                             *
 *        CONTRIBUTIONS TO THE CODE HAVE ALSO BEEN GIVEN BY                    *
 *                                                                             *
 *  M. FERRABONE(1,11), M. DE LA PIERRE(1,11), M. FERRERO(1,11),               *
 *  J. BAIMA(1,11), E. ALBANESE(1,11), M.F. PEINTINGER(12), R. BAST(13),       *
 *  B. KIRTMAN(15), V. LACIVITA(1,11), R. DEMICHELIS(1,16)                     *
 *  G. BRANDEBURG(17), S. SALUSTRO(1,11), G. SANSONE(1,11)                     *
 *  M.T. RUGGIERO(18)                                                          *
 *                                                                             *
 * (1) THEORETICAL CHEMISTRY GROUP - UNIVERSITA' DI TORINO - TORINO (ITALY)    *
 * (2) COMPUTATIONAL SCIENCE & ENGINEERING DEPARTMENT - STFC DARESBURY (UK)    *
 * (3) UNIVERSIDAD AUTONOMA DEL ESTADO DE MORELOS - CUERNAVACA (MEXICO)        *
 * (4) UNIVERSITE' DE LORRAINE - NANCY (FRANCE)                                *
 * (5) UNIVERSITAET STUTTGART- STUTTGART (GERMANY)                             *
 * (6) IMPERIAL COLLEGE - LONDON (UK)                                          *
 * (7) OXFORD E-RESEARCH CENTRE - OXFORD (UK)                                  *
 * (8) UPMC - SORBONNE UNIVERSITES - PARIS (FRANCE)                            *
 * (9) UNIVERSIDAD DE BARCELONA - BARCELONA (SPAIN)                            *
 *(10) UNIVERSITA' DI NAPOLI "FEDERICO II" - NAPOLI (ITALY)                    *
 *(11) NIS - NANOSTRUCTURED INTERFACES AND SURFACES - TORINO (ITALY)           *
 *(12) MPI FUER CHEMISCHE ENERGIEKONVERSION - MUELHEIM AN DER RUHR (GERMANY)   *
 *(13) UNIVERSITY OF TROMSO - TROMSO (NORWAY)                                  *
 *(14) UNIVERSITE' DE PAU ET DES PAYS DE L'ADOUR - PAU (FRANCE)                *
 *(15) UNIVERSITY OF CALIFORNIA SANTA BARBARA - SANTA BARBARA (USA)            *
 *(16) CURTIN UNIVERSITY - PERTH (AUSTRALIA)                                   *
 *(17) UNIVERSITY COLLEGE LONDON - LONDON (UK)                                 *
 *(18) CAMBRIDGE UNIVERSITY - CAMBRIDGE (UK)                                   *
 *                                                                             *
 *******************************************************************************
 EEEEEEEEEE STARTING  DATE 31 10 2022 TIME 19:41:03.3
 Final                                                                           

 GEOMETRY INPUT FROM EXTERNAL FILE (FORTRAN UNIT 34)
 3D - CRYSTAL 

 *******************************************************************************
 LATTICE PARAMETERS  (ANGSTROMS AND DEGREES) - PRIMITIVE CELL
       A          B          C        ALPHA      BETA     GAMMA        VOLUME
    7.40317    7.40317    8.68504    90.00000  90.00000 120.00000    412.228566
 INFORMATION **** CHKGRP **** SPGR WITH NO INVERSION

 NUMBER OF IRREDUCIBLE ATOMS IN THE CELL:   15

 CARTESIAN COORDINATES (ANGSTROM) - IRREDUCIBLE ATOMS AND SYMMETRY RELATED

 AT.IRR.  AT  AT.N.          X                   Y                   Z
     1     1     6    3.701586212049E+00  4.986594190562E+00  2.605511400000E+00
     2     2     6    2.467724141366E+00 -1.424741197304E+00  2.605511400000E+00
     3     3     6    3.701586212049E+00  7.123705986520E-01  2.605511400000E+00
     4     4     6    4.935448282733E+00  2.849482394607E+00  2.605511400000E+00
     5     5     6    3.701586212049E+00 -3.561852993259E+00  2.605511400000E+00
     6     6     6    4.935448282733E+00 -1.424741197304E+00  2.605511400000E+00
     7     7     6    6.169310353416E+00  7.123705986520E-01  2.605511400000E+00
     8     8     6    1.233862070683E+00 -7.123705986520E-01  2.605511400000E+00
     9     9     6    2.467724141366E+00  1.424741197304E+00  2.605511400000E+00
    10    10     6    3.701586212049E+00  3.561852993259E+00  2.605511400000E+00
    11    11     6    2.467724141366E+00 -2.849482394607E+00  2.605511400000E+00
    12    12     6    3.701586212049E+00 -7.123705986520E-01  2.605511400000E+00
    13    13     6    4.935448282733E+00  1.424741197304E+00  2.605511400000E+00
    14    14     6    4.935448282733E+00 -2.849482394607E+00  2.605511400000E+00
    15    15     6    6.169310353416E+00 -7.123705986520E-01  2.605511400000E+00

 SPACE  GROUP  N.                     :    1
 NUMBER OF SYMMETRY OPERATORS         :    1
 *******************************************************************************
 LATTICE PARAMETERS (ANGSTROMS AND DEGREES) - BOHR = 0.5291772083 ANGSTROM
 PRIMITIVE CELL - CENTRING CODE 1/0 VOLUME=   412.228566 - DENSITY  0.725 g/cm^3
         A              B              C           ALPHA      BETA       GAMMA 
     7.40317242     7.40317242     8.68503800    90.000000  90.000000 120.000000
 *******************************************************************************
 ATOMS IN THE ASYMMETRIC UNIT   15 - ATOMS IN THE UNIT CELL:   15
     ATOM                 X/A                 Y/B                 Z/C    
 *******************************************************************************
      1 T   6 C     1.111111111111E-01 -1.111111111111E-01  3.000000000000E-01
      2 T   6 C     4.444444444445E-01  2.222222222222E-01  3.000000000000E-01
      3 T   6 C     4.444444444444E-01 -4.444444444444E-01  3.000000000000E-01
      4 T   6 C     4.444444444446E-01 -1.111111111110E-01  3.000000000000E-01
      5 T   6 C    -2.222222222222E-01  2.222222222222E-01  3.000000000000E-01
      6 T   6 C    -2.222222222221E-01 -4.444444444443E-01  3.000000000000E-01
      7 T   6 C    -2.222222222221E-01 -1.111111111110E-01  3.000000000000E-01
      8 T   6 C     2.222222222222E-01  1.111111111111E-01  3.000000000000E-01
      9 T   6 C     2.222222222222E-01  4.444444444445E-01  3.000000000000E-01
     10 T   6 C     2.222222222222E-01 -2.222222222222E-01  3.000000000000E-01
     11 T   6 C    -4.444444444445E-01  1.111111111111E-01  3.000000000000E-01
     12 T   6 C    -4.444444444444E-01  4.444444444444E-01  3.000000000000E-01
     13 T   6 C    -4.444444444443E-01 -2.222222222221E-01  3.000000000000E-01
     14 T   6 C    -1.111111111110E-01  4.444444444446E-01  3.000000000000E-01
     15 T   6 C    -1.111111111110E-01 -2.222222222221E-01  3.000000000000E-01

 T = ATOM BELONGING TO THE ASYMMETRIC UNIT
 *******************************************************************************
 * GEOMETRY EDITING - INPUT COORDINATES ARE GIVEN IN ANGSTROM         
 *******************************************************************************

 USE OF SYMMETRY WILL BE SUBSEQUENTLY SUSPENDED
 INFORMATION **** NEW DEFAULT **** FINALRUN 4 FOR GEOMETRY OPTIMIZATIONS
 INFORMATION **** NEW DEFAULT **** OPTGEOM OPTIMIZES BOTH ATOMIC COORDINATES AND CELL PARAMETERS
 INFORMATION **** NEW DEFAULT **** TOL. ON ATOMIC DISP TO REDEFINE REF. GEOMETRY: 0.8 Angs
 INFORMATION **** NEW DEFAULT **** N POINTS TO REDEFINE REF. GEOMETRY: N OF OPT DEGS OF FREEDOM
 INFORMATION **** NEW DEFAULT **** TOL. ON ENERGY TO REDEFINE REF. GEOMETRY: 10**-3*(5*N. ATOMS)
 INFORMATION **** ATOMONLY **** ONLY ATOMIC COORDINATES ARE OPTIMIZED

 IMPORTANT INFORMATION:
 THE COORDINATE SYSTEM ADOPTED IN THE OPTIMIZATION IS NOT IN
 GENERAL HOMOGENEOUS UNITS. FOR THIS REASON THE GRADIENT AND 
 HESSIAN MATRIX IN TERMS OF THIS SYSTEM ARE GIVEN WITHOUT
 UNITS. FOR MORE DETAILS SEE THE MANUAL.

 *******************************************************************************
 ATOMIC POSITIONS OPTIMIZATION CONTROL

 INITIAL TRUST RADIUS         0.50000 MAXIMUM TRUST RADIUS               4.00000
 MAXIMUM GRADIENT COMPONENT   0.00045 MAXIMUM DISPLACEMENT COMPONENT     0.00180
 R.M.S. OF GRADIENT COMPONENT 0.00030 R.M.S. OF DISPLACEMENT COMPONENTS  0.00120
 THRESHOLD ON ENERGY CHANGE 0.100E-06 EXTRAPOLATING POLYNOMIAL ORDER           2
 MAXIMUM ALLOWED NUMBER OF STEPS   -1 SORTING OF ENERGY POINTS:               NO
 ANALYTICAL  GRADIENT                 HESSIAN UPDATING                      BFGS
 STEP SIZE NUMERICAL GRADIENT 0.00100
 INITIAL HESSIAN MATRIX: SCHLEGEL MODEL 2
 *******************************************************************************


 GCALCO - MAX INDICES DIRECT LATTICE VECTOR    16    16    12
 NO.OF VECTORS CREATED 6999 STARS  379 RMAX   166.99060 BOHR

 GEOMETRY FOR WAVE FUNCTION - DIMENSIONALITY OF THE SYSTEM    3
 (NON PERIODIC DIRECTION: LATTICE PARAMETER FORMALLY SET TO 500)
 *******************************************************************************
 LATTICE PARAMETERS (ANGSTROMS AND DEGREES) - BOHR = 0.5291772083 ANGSTROM
 PRIMITIVE CELL - CENTRING CODE 1/0 VOLUME=   412.228566 - DENSITY  0.725 g/cm^3
         A              B              C           ALPHA      BETA       GAMMA 
     7.40317242     7.40317242     8.68503800    90.000000  90.000000 120.000000
 *******************************************************************************
 ATOMS IN THE ASYMMETRIC UNIT   15 - ATOMS IN THE UNIT CELL:   15
     ATOM                 X/A                 Y/B                 Z/C    
 *******************************************************************************
      1 T   6 C     1.111111111111E-01 -1.111111111111E-01  3.000000000000E-01
      2 T   6 C     4.444444444445E-01  2.222222222222E-01  3.000000000000E-01
      3 T   6 C     4.444444444444E-01 -4.444444444444E-01  3.000000000000E-01
      4 T   6 C     4.444444444446E-01 -1.111111111110E-01  3.000000000000E-01
      5 T   6 C    -2.222222222222E-01  2.222222222222E-01  3.000000000000E-01
      6 T   6 C    -2.222222222221E-01 -4.444444444443E-01  3.000000000000E-01
      7 T   6 C    -2.222222222221E-01 -1.111111111110E-01  3.000000000000E-01
      8 T   6 C     2.222222222222E-01  1.111111111111E-01  3.000000000000E-01
      9 T   6 C     2.222222222222E-01  4.444444444445E-01  3.000000000000E-01
     10 T   6 C     2.222222222222E-01 -2.222222222222E-01  3.000000000000E-01
     11 T   6 C    -4.444444444445E-01  1.111111111111E-01  3.000000000000E-01
     12 T   6 C    -4.444444444444E-01  4.444444444444E-01  3.000000000000E-01
     13 T   6 C    -4.444444444443E-01 -2.222222222221E-01  3.000000000000E-01
     14 T   6 C    -1.111111111110E-01  4.444444444446E-01  3.000000000000E-01
     15 T   6 C    -1.111111111110E-01 -2.222222222221E-01  3.000000000000E-01

 T = ATOM BELONGING TO THE ASYMMETRIC UNIT

 ****    1 SYMMOPS - TRANSLATORS IN FRACTIONAL UNITS
 **** MATRICES AND TRANSLATORS IN THE CRYSTALLOGRAPHIC REFERENCE FRAME
   V INV                    ROTATION MATRICES                   TRANSLATORS
   1   1  1.00  0.00  0.00  0.00  1.00  0.00  0.00  0.00  1.00  0.00  0.00  0.00

 DIRECT LATTICE VECTORS CARTESIAN COMPONENTS (ANGSTROM)
          X                    Y                    Z
   0.370158621205E+01  -0.641133538787E+01   0.000000000000E+00
   0.370158621205E+01   0.641133538787E+01   0.000000000000E+00
   0.000000000000E+00   0.000000000000E+00   0.868503800000E+01


 CARTESIAN COORDINATES - PRIMITIVE CELL
 *******************************************************************************
 *      ATOM          X(ANGSTROM)         Y(ANGSTROM)         Z(ANGSTROM)
 *******************************************************************************
    1     6 C     3.701586212049E+00  4.986594190562E+00  2.605511400000E+00
    2     6 C     2.467724141366E+00 -1.424741197304E+00  2.605511400000E+00
    3     6 C     3.701586212049E+00  7.123705986520E-01  2.605511400000E+00
    4     6 C     4.935448282733E+00  2.849482394607E+00  2.605511400000E+00
    5     6 C     3.701586212049E+00 -3.561852993259E+00  2.605511400000E+00
    6     6 C     4.935448282733E+00 -1.424741197304E+00  2.605511400000E+00
    7     6 C     6.169310353416E+00  7.123705986520E-01  2.605511400000E+00
    8     6 C     1.233862070683E+00 -7.123705986520E-01  2.605511400000E+00
    9     6 C     2.467724141366E+00  1.424741197304E+00  2.605511400000E+00
   10     6 C     3.701586212049E+00  3.561852993259E+00  2.605511400000E+00
   11     6 C     2.467724141366E+00 -2.849482394607E+00  2.605511400000E+00
   12     6 C     3.701586212049E+00 -7.123705986520E-01  2.605511400000E+00
   13     6 C     4.935448282733E+00  1.424741197304E+00  2.605511400000E+00
   14     6 C     4.935448282733E+00 -2.849482394607E+00  2.605511400000E+00
   15     6 C     6.169310353416E+00 -7.123705986520E-01  2.605511400000E+00

 *******************************************************************************
 LOCAL ATOMIC FUNCTIONS BASIS SET
 *******************************************************************************
   ATOM   X(AU)   Y(AU)   Z(AU)  N. TYPE  EXPONENT  S COEF   P COEF   D/F/G COEF
 *******************************************************************************
   1 C    6.995   9.423   4.924
                                  1 S  
                                         1.358E+04 2.225E-04 0.000E+00 0.000E+00
                                         2.035E+03 1.723E-03 0.000E+00 0.000E+00
                                         4.632E+02 8.926E-03 0.000E+00 0.000E+00
                                         1.312E+02 3.573E-02 0.000E+00 0.000E+00
                                         4.285E+01 1.108E-01 0.000E+00 0.000E+00
                                         1.558E+01 2.430E-01 0.000E+00 0.000E+00
                                  2 S  
                                         6.207E+00 4.144E-01 0.000E+00 0.000E+00
                                         2.576E+00 2.374E-01 0.000E+00 0.000E+00
                                  3 S  
                                         4.941E-01 1.000E+00 0.000E+00 0.000E+00
                                  4 S  
                                         1.644E-01 1.000E+00 0.000E+00 0.000E+00
                           5-     7 P  
                                         3.470E+01 0.000E+00 5.333E-03 0.000E+00
                                         7.958E+00 0.000E+00 3.586E-02 0.000E+00
                                         2.378E+00 0.000E+00 1.422E-01 0.000E+00
                                         8.143E-01 0.000E+00 3.427E-01 0.000E+00
                           8-    10 P  
                                         5.662E-01 0.000E+00 1.000E+00 0.000E+00
                          11-    13 P  
                                         1.974E-01 0.000E+00 1.000E+00 0.000E+00
                          14-    18 D  
                                         5.792E-01 0.000E+00 0.000E+00 1.000E+00
   2 C    4.663  -2.692   4.924
   3 C    6.995   1.346   4.924
   4 C    9.327   5.385   4.924
   5 C    6.995  -6.731   4.924
   6 C    9.327  -2.692   4.924
   7 C   11.658   1.346   4.924
   8 C    2.332  -1.346   4.924
   9 C    4.663   2.692   4.924
  10 C    6.995   6.731   4.924
  11 C    4.663  -5.385   4.924
  12 C    6.995  -1.346   4.924
  13 C    9.327   2.692   4.924
  14 C    9.327  -5.385   4.924
  15 C   11.658  -1.346   4.924
 INFORMATION **** SET_MPP **** PCRYSTAL CALCULATION
 INFORMATION **** READM2 **** NEW DEFAULT: FOCK/KS MATRIX MIXING SET TO 30 %
 INFORMATION **** READM2 **** NEW DEFAULT: FULL DIRECT SCF MODE
 INFORMATION **** READM2 **** NEW DEFAULT: COULOMB BIPOLAR BUFFER SET TO 32 Mb
 INFORMATION **** READM2 **** NEW DEFAULT: EXCHANGE BIPOLAR BUFFER SET TO 32 Mb

 *******************************************************************************
 NEW DEFAULT: DFT INTEGRATION GRID INCREASED TO XLGRID
 NEW DEFAULT: DIIS ACCELERATOR ACTIVE
 USE KEYWORD NODIIS TO TURN IT OFF
 *******************************************************************************

 INFORMATION **** TOLINTEG **** COULOMB AND EXCHANGE SERIES TOLERANCES MODIFIED
 INFORMATION **** READM2 **** FULL DIRECT SCF (MONO AND BIEL INT) SELECTED
 INFORMATION **** MAXCYCLE **** MAX NUMBER OF SCF CYCLES SET TO         200
 INFORMATION **** TOLDEE **** SCF TOL ON TOTAL ENERGY SET TO           9
 *******************************************************************************
 N. OF ATOMS PER CELL        15  COULOMB OVERLAP TOL         (T1) 10**   -8
 NUMBER OF SHELLS           120  COULOMB PENETRATION TOL     (T2) 10**   -8
 NUMBER OF AO               270  EXCHANGE OVERLAP TOL        (T3) 10**   20
 N. OF ELECTRONS PER CELL    90  EXCHANGE PSEUDO OVP (F(G))  (T4) 10**   20
 CORE ELECTRONS PER CELL     30  EXCHANGE PSEUDO OVP (P(G))  (T5) 10**   20
 N. OF SYMMETRY OPERATORS     1  POLE ORDER IN MONO ZONE                  4
 *******************************************************************************
 TYPE OF CALCULATION :  RESTRICTED CLOSED SHELL
 KOHN-SHAM HAMILTONIAN

 (EXCHANGE)[CORRELATION] FUNCTIONAL:(PERDEW-BURKE-ERNZERHOF)[PERDEW-BURKE-ERNZERHOF]


 CAPPA:IS1  8;IS2  8;IS3  8; K PTS MONK NET 260; SYMMOPS:K SPACE   2;G SPACE   1

 *******************************************************************************
 MAX NUMBER OF SCF CYCLES     200  CONVERGENCE ON DELTAP        10**-19
 WEIGHT OF F(I) IN F(I+1)      30% CONVERGENCE ON ENERGY        10**- 9
 SHRINK. FACT.(MONKH.)    8  8  8  NUMBER OF K POINTS IN THE IBZ    260
 SHRINKING FACTOR(GILAT NET)   16  NUMBER OF K POINTS(GILAT NET)   2052
 *******************************************************************************
 *** K POINTS COORDINATES (OBLIQUE COORDINATES IN UNITS OF IS =  8)
   1-R(  0  0  0)   2-C(  1  0  0)   3-C(  2  0  0)   4-C(  3  0  0)
   5-R(  4  0  0)   6-C(  0  1  0)   7-C(  1  1  0)   8-C(  2  1  0)
   9-C(  3  1  0)  10-C(  4  1  0)  11-C(  5  1  0)  12-C(  6  1  0)
  13-C(  7  1  0)  14-C(  0  2  0)  15-C(  1  2  0)  16-C(  2  2  0)
  17-C(  3  2  0)  18-C(  4  2  0)  19-C(  5  2  0)  20-C(  6  2  0)
  21-C(  7  2  0)  22-C(  0  3  0)  23-C(  1  3  0)  24-C(  2  3  0)
  25-C(  3  3  0)  26-C(  4  3  0)  27-C(  5  3  0)  28-C(  6  3  0)
  29-C(  7  3  0)  30-R(  0  4  0)  31-C(  1  4  0)  32-C(  2  4  0)
  33-C(  3  4  0)  34-R(  4  4  0)  35-C(  0  0  1)  36-C(  1  0  1)
  37-C(  2  0  1)  38-C(  3  0  1)  39-C(  4  0  1)  40-C(  5  0  1)
  41-C(  6  0  1)  42-C(  7  0  1)  43-C(  0  1  1)  44-C(  1  1  1)
  45-C(  2  1  1)  46-C(  3  1  1)  47-C(  4  1  1)  48-C(  5  1  1)
  49-C(  6  1  1)  50-C(  7  1  1)  51-C(  0  2  1)  52-C(  1  2  1)
  53-C(  2  2  1)  54-C(  3  2  1)  55-C(  4  2  1)  56-C(  5  2  1)
  57-C(  6  2  1)  58-C(  7  2  1)  59-C(  0  3  1)  60-C(  1  3  1)
  61-C(  2  3  1)  62-C(  3  3  1)  63-C(  4  3  1)  64-C(  5  3  1)
  65-C(  6  3  1)  66-C(  7  3  1)  67-C(  0  4  1)  68-C(  1  4  1)
  69-C(  2  4  1)  70-C(  3  4  1)  71-C(  4  4  1)  72-C(  5  4  1)
  73-C(  6  4  1)  74-C(  7  4  1)  75-C(  0  5  1)  76-C(  1  5  1)
  77-C(  2  5  1)  78-C(  3  5  1)  79-C(  4  5  1)  80-C(  5  5  1)
  81-C(  6  5  1)  82-C(  7  5  1)  83-C(  0  6  1)  84-C(  1  6  1)
  85-C(  2  6  1)  86-C(  3  6  1)  87-C(  4  6  1)  88-C(  5  6  1)
  89-C(  6  6  1)  90-C(  7  6  1)  91-C(  0  7  1)  92-C(  1  7  1)
  93-C(  2  7  1)  94-C(  3  7  1)  95-C(  4  7  1)  96-C(  5  7  1)
  97-C(  6  7  1)  98-C(  7  7  1)  99-C(  0  0  2) 100-C(  1  0  2)
 101-C(  2  0  2) 102-C(  3  0  2) 103-C(  4  0  2) 104-C(  5  0  2)
 105-C(  6  0  2) 106-C(  7  0  2) 107-C(  0  1  2) 108-C(  1  1  2)
 109-C(  2  1  2) 110-C(  3  1  2) 111-C(  4  1  2) 112-C(  5  1  2)
 113-C(  6  1  2) 114-C(  7  1  2) 115-C(  0  2  2) 116-C(  1  2  2)
 117-C(  2  2  2) 118-C(  3  2  2) 119-C(  4  2  2) 120-C(  5  2  2)
 121-C(  6  2  2) 122-C(  7  2  2) 123-C(  0  3  2) 124-C(  1  3  2)
 125-C(  2  3  2) 126-C(  3  3  2) 127-C(  4  3  2) 128-C(  5  3  2)
 129-C(  6  3  2) 130-C(  7  3  2) 131-C(  0  4  2) 132-C(  1  4  2)
 133-C(  2  4  2) 134-C(  3  4  2) 135-C(  4  4  2) 136-C(  5  4  2)
 137-C(  6  4  2) 138-C(  7  4  2) 139-C(  0  5  2) 140-C(  1  5  2)
 141-C(  2  5  2) 142-C(  3  5  2) 143-C(  4  5  2) 144-C(  5  5  2)
 145-C(  6  5  2) 146-C(  7  5  2) 147-C(  0  6  2) 148-C(  1  6  2)
 149-C(  2  6  2) 150-C(  3  6  2) 151-C(  4  6  2) 152-C(  5  6  2)
 153-C(  6  6  2) 154-C(  7  6  2) 155-C(  0  7  2) 156-C(  1  7  2)
 157-C(  2  7  2) 158-C(  3  7  2) 159-C(  4  7  2) 160-C(  5  7  2)
 161-C(  6  7  2) 162-C(  7  7  2) 163-C(  0  0  3) 164-C(  1  0  3)
 165-C(  2  0  3) 166-C(  3  0  3) 167-C(  4  0  3) 168-C(  5  0  3)
 169-C(  6  0  3) 170-C(  7  0  3) 171-C(  0  1  3) 172-C(  1  1  3)
 173-C(  2  1  3) 174-C(  3  1  3) 175-C(  4  1  3) 176-C(  5  1  3)
 177-C(  6  1  3) 178-C(  7  1  3) 179-C(  0  2  3) 180-C(  1  2  3)
 181-C(  2  2  3) 182-C(  3  2  3) 183-C(  4  2  3) 184-C(  5  2  3)
 185-C(  6  2  3) 186-C(  7  2  3) 187-C(  0  3  3) 188-C(  1  3  3)
 189-C(  2  3  3) 190-C(  3  3  3) 191-C(  4  3  3) 192-C(  5  3  3)
 193-C(  6  3  3) 194-C(  7  3  3) 195-C(  0  4  3) 196-C(  1  4  3)
 197-C(  2  4  3) 198-C(  3  4  3) 199-C(  4  4  3) 200-C(  5  4  3)
 201-C(  6  4  3) 202-C(  7  4  3) 203-C(  0  5  3) 204-C(  1  5  3)
 205-C(  2  5  3) 206-C(  3  5  3) 207-C(  4  5  3) 208-C(  5  5  3)
 209-C(  6  5  3) 210-C(  7  5  3) 211-C(  0  6  3) 212-C(  1  6  3)
 213-C(  2  6  3) 214-C(  3  6  3) 215-C(  4  6  3) 216-C(  5  6  3)
 217-C(  6  6  3) 218-C(  7  6  3) 219-C(  0  7  3) 220-C(  1  7  3)
 221-C(  2  7  3) 222-C(  3  7  3) 223-C(  4  7  3) 224-C(  5  7  3)
 225-C(  6  7  3) 226-C(  7  7  3) 227-R(  0  0  4) 228-C(  1  0  4)
 229-C(  2  0  4) 230-C(  3  0  4) 231-R(  4  0  4) 232-C(  0  1  4)
 233-C(  1  1  4) 234-C(  2  1  4) 235-C(  3  1  4) 236-C(  4  1  4)
 237-C(  5  1  4) 238-C(  6  1  4) 239-C(  7  1  4) 240-C(  0  2  4)
 241-C(  1  2  4) 242-C(  2  2  4) 243-C(  3  2  4) 244-C(  4  2  4)
 245-C(  5  2  4) 246-C(  6  2  4) 247-C(  7  2  4) 248-C(  0  3  4)
 249-C(  1  3  4) 250-C(  2  3  4) 251-C(  3  3  4) 252-C(  4  3  4)
 253-C(  5  3  4) 254-C(  6  3  4) 255-C(  7  3  4) 256-R(  0  4  4)
 257-C(  1  4  4) 258-C(  2  4  4) 259-C(  3  4  4) 260-R(  4  4  4)

 DIRECT LATTICE VECTORS COMPON. (A.U.)     RECIP. LATTICE VECTORS COMPON. (A.U.) 
        X            Y            Z              X            Y            Z
    6.9949842  -12.1156680    0.0000000      0.4491208   -0.2593000    0.0000000
    6.9949842   12.1156680    0.0000000      0.4491208    0.2593000   -0.0000000
    0.0000000    0.0000000   16.4123433     -0.0000000    0.0000000    0.3828329

 DISK SPACE FOR EIGENVECTORS (FTN 10)    37324800 REALS

 SYMMETRY ADAPTION OF THE BLOCH FUNCTIONS DISABLED
 TTTTTTTTTTTTTTTTTTTTTTTTTTTTTT gordsh1     TELAPSE        2.46 TCPU        1.05

 MATRIX SIZE: P(G)  110496, F(G)   55428, P(G) IRR   55713, F(G) IRR   55713
 MAX G-VECTOR INDEX FOR 1- AND 2-ELECTRON INTEGRALS  27

 TTTTTTTTTTTTTTTTTTTTTTTTTTTTTT INPUT       TELAPSE        2.47 TCPU        1.05

 NEIGHBORS OF THE NON-EQUIVALENT ATOMS

 N = NUMBER OF NEIGHBORS AT DISTANCE R
    ATOM  N     R/ANG      R/AU   NEIGHBORS (ATOM LABELS AND CELL INDICES)
   1 C    3     1.4247     2.6924    8 C    0 1 0   10 C    0 0 0   15 C   -1 0 0
   1 C    4     2.4677     4.6633    2 C    0 1 0    4 C    0 0 0    6 C   -1 0 0
                                     7 C   -1 0 0
   1 C    2     2.8495     5.3847   11 C    0 1 0   14 C   -1 0 0
   1 C    6     3.7695     7.1233    9 C    0 0 0    9 C    0 1 0   12 C   -1 0 0
                                    12 C    0 1 0   13 C    0 0 0   13 C   -1 0 0
   1 C    6     4.2742     8.0771    3 C    0 0 0    3 C   -1 0 0    3 C    0 1 0
                                     5 C   -1 0 0    5 C    0 1 0    5 C   -1 1 0
   1 C    4     4.9354     9.3266    2 C   -1 0 0    4 C   -1 0 0    6 C    0 1 0
                                     7 C    0 0 0

   2 C    3     1.4247     2.6924    8 C    0 0 0   11 C    0 0 0   12 C    0 0 0
   2 C    5     2.4677     4.6633    1 C    0-1 0    3 C    0 0 0    4 C    0-1 0
                                     5 C    0 0 0    6 C    0 0 0
   2 C    3     2.8495     5.3847    9 C    0 0 0   10 C    0-1 0   14 C    0 0 0
   2 C    4     3.7695     7.1233   13 C    0 0 0   13 C    0-1 0   15 C    0 0 0
                                    15 C   -1-1 0
   2 C    3     4.2742     8.0771    7 C    0 0 0    7 C   -1-1 0    7 C    0-1 0
   2 C    5     4.9354     9.3266    1 C    1 0 0    3 C    0-1 0    4 C    0 0 0
                                     5 C   -1 0 0    6 C   -1-1 0

   3 C    3     1.4247     2.6924    9 C    0 0 0   12 C    0 0 0   13 C    0 0 0
   3 C    4     2.4677     4.6633    2 C    0 0 0    4 C    0 0 0    6 C    0 0 0
                                     7 C    0 0 0
   3 C    3     2.8495     5.3847    8 C    0 0 0   10 C    0 0 0   15 C    0 0 0
   3 C    4     3.7695     7.1233   11 C    0 0 0   11 C    0 1 0   14 C    0 0 0
                                    14 C   -1 0 0
   3 C    6     4.2742     8.0771    1 C    0 0 0    1 C    1 0 0    1 C    0-1 0
                                     5 C    0 0 0    5 C   -1 0 0    5 C    0 1 0
   3 C    4     4.9354     9.3266    2 C    0 1 0    4 C    0-1 0    6 C   -1 0 0
                                     7 C   -1-1 0

   4 C    3     1.4247     2.6924   10 C    0 0 0   11 C    0 1 0   13 C    0 0 0
   4 C    5     2.4677     4.6633    1 C    0 0 0    2 C    0 1 0    3 C    0 0 0
                                     5 C    0 1 0    7 C    0 0 0
   4 C    2     2.8495     5.3847    8 C    0 1 0    9 C    0 0 0
   4 C    6     3.7695     7.1233   12 C    0 0 0   12 C    0 1 0   14 C   -1 0 0
                                    14 C    0 1 0   15 C    0 0 0   15 C   -1 0 0
   4 C    3     4.2742     8.0771    6 C    0 0 0    6 C   -1 0 0    6 C    0 1 0
   4 C    5     4.9354     9.3266    1 C    1 0 0    2 C    0 0 0    3 C    0 1 0
                                     5 C   -1 0 0    7 C   -1 0 0

   5 C    2     1.4247     2.6924   11 C    0 0 0   14 C    0 0 0
   5 C    4     2.4677     4.6633    2 C    0 0 0    4 C    0-1 0    6 C    0 0 0
                                     7 C    0-1 0
   5 C    3     2.8495     5.3847    9 C    1 0 0   12 C    0 0 0   13 C    0-1 0
   5 C    6     3.7695     7.1233    8 C    0 0 0    8 C    1 0 0   10 C    1 0 0
                                    10 C    0-1 0   15 C    0 0 0   15 C    0-1 0
   5 C    6     4.2742     8.0771    1 C    1 0 0    1 C    0-1 0    1 C    1-1 0
                                     3 C    0 0 0    3 C    1 0 0    3 C    0-1 0
   5 C    4     4.9354     9.3266    2 C    1 0 0    4 C    1 0 0    6 C    0-1 0
                                     7 C    0 0 0

   6 C    3     1.4247     2.6924   12 C    0 0 0   14 C    0 0 0   15 C    0 0 0
   6 C    5     2.4677     4.6633    1 C    1 0 0    2 C    0 0 0    3 C    0 0 0
                                     5 C    0 0 0    7 C    0 0 0
   6 C    3     2.8495     5.3847   10 C    1 0 0   11 C    0 0 0   13 C    0 0 0
   6 C    4     3.7695     7.1233    8 C    0 0 0    8 C    1 1 0    9 C    0 0 0
                                     9 C    1 0 0
   6 C    3     4.2742     8.0771    4 C    0 0 0    4 C    1 0 0    4 C    0-1 0
   6 C    5     4.9354     9.3266    1 C    0-1 0    2 C    1 1 0    3 C    1 0 0
                                     5 C    0 1 0    7 C    0-1 0

   7 C    2     1.4247     2.6924   13 C    0 0 0   15 C    0 0 0
   7 C    5     2.4677     4.6633    1 C    1 0 0    3 C    0 0 0    4 C    0 0 0
                                     5 C    0 1 0    6 C    0 0 0
   7 C    3     2.8495     5.3847    8 C    1 1 0   11 C    0 1 0   12 C    0 0 0
   7 C    6     3.7695     7.1233    9 C    0 0 0    9 C    1 1 0   10 C    0 0 0
                                    10 C    1 0 0   14 C    0 0 0   14 C    0 1 0
   7 C    3     4.2742     8.0771    2 C    0 0 0    2 C    1 1 0    2 C    0 1 0
   7 C    5     4.9354     9.3266    1 C    0 0 0    3 C    1 1 0    4 C    1 0 0
                                     5 C    0 0 0    6 C    0 1 0

   8 C    2     1.4247     2.6924    1 C    0-1 0    2 C    0 0 0
   8 C    5     2.4677     4.6633    9 C    0 0 0   10 C    0-1 0   11 C    0 0 0
                                    12 C    0 0 0   15 C   -1-1 0
   8 C    3     2.8495     5.3847    3 C    0 0 0    4 C    0-1 0    7 C   -1-1 0
   8 C    4     3.7695     7.1233    5 C    0 0 0    5 C   -1 0 0    6 C    0 0 0
                                     6 C   -1-1 0
   8 C    6     4.2742     8.0771   13 C    0 0 0   13 C   -1-1 0   13 C    0-1 0
                                    14 C    0 0 0   14 C   -1-1 0   14 C   -1 0 0
   8 C    5     4.9354     9.3266    9 C    0-1 0   10 C    0 0 0   11 C   -1 0 0
                                    12 C   -1-1 0   15 C    0 0 0

   9 C    1     1.4247     2.6924    3 C    0 0 0
   9 C    5     2.4677     4.6633    8 C    0 0 0   10 C    0 0 0   12 C    0 0 0
                                    13 C    0 0 0   14 C   -1 0 0
   9 C    3     2.8495     5.3847    2 C    0 0 0    4 C    0 0 0    5 C   -1 0 0
   9 C    6     3.7695     7.1233    1 C    0 0 0    1 C    0-1 0    6 C    0 0 0
                                     6 C   -1 0 0    7 C    0 0 0    7 C   -1-1 0
   9 C    6     4.2742     8.0771   11 C    0 0 0   11 C   -1 0 0   11 C    0 1 0
                                    15 C    0 0 0   15 C   -1-1 0   15 C   -1 0 0
   9 C    5     4.9354     9.3266    8 C    0 1 0   10 C    0-1 0   12 C   -1 0 0
                                    13 C   -1-1 0   14 C    0 0 0

  10 C    2     1.4247     2.6924    1 C    0 0 0    4 C    0 0 0
  10 C    6     2.4677     4.6633    8 C    0 1 0    9 C    0 0 0   11 C    0 1 0
                                    13 C    0 0 0   14 C   -1 0 0   15 C   -1 0 0
  10 C    3     2.8495     5.3847    2 C    0 1 0    3 C    0 0 0    6 C   -1 0 0
  10 C    4     3.7695     7.1233    5 C   -1 0 0    5 C    0 1 0    7 C    0 0 0
                                     7 C   -1 0 0
  10 C    3     4.2742     8.0771   12 C    0 0 0   12 C   -1 0 0   12 C    0 1 0
  10 C    6     4.9354     9.3266    8 C    0 0 0    9 C    0 1 0   11 C   -1 0 0
                                    13 C   -1 0 0   14 C    0 1 0   15 C    0 0 0

  11 C    3     1.4247     2.6924    2 C    0 0 0    4 C    0-1 0    5 C    0 0 0
  11 C    5     2.4677     4.6633    8 C    0 0 0   10 C    0-1 0   12 C    0 0 0
                                    13 C    0-1 0   14 C    0 0 0
  11 C    3     2.8495     5.3847    1 C    0-1 0    6 C    0 0 0    7 C    0-1 0
  11 C    2     3.7695     7.1233    3 C    0 0 0    3 C    0-1 0
  11 C    6     4.2742     8.0771    9 C    0 0 0    9 C    1 0 0    9 C    0-1 0
                                    15 C    0 0 0   15 C   -1-1 0   15 C    0-1 0
  11 C    5     4.9354     9.3266    8 C    1 0 0   10 C    1 0 0   12 C    0-1 0
                                    13 C    0 0 0   14 C   -1-1 0

  12 C    3     1.4247     2.6924    2 C    0 0 0    3 C    0 0 0    6 C    0 0 0
  12 C    6     2.4677     4.6633    8 C    0 0 0    9 C    0 0 0   11 C    0 0 0
                                    13 C    0 0 0   14 C    0 0 0   15 C    0 0 0
  12 C    2     2.8495     5.3847    5 C    0 0 0    7 C    0 0 0
  12 C    4     3.7695     7.1233    1 C    1 0 0    1 C    0-1 0    4 C    0 0 0
                                     4 C    0-1 0
  12 C    3     4.2742     8.0771   10 C    0 0 0   10 C    1 0 0   10 C    0-1 0
  12 C    6     4.9354     9.3266    8 C    1 1 0    9 C    1 0 0   11 C    0 1 0
                                    13 C    0-1 0   14 C   -1 0 0   15 C   -1-1 0

  13 C    3     1.4247     2.6924    3 C    0 0 0    4 C    0 0 0    7 C    0 0 0
  13 C    5     2.4677     4.6633    9 C    0 0 0   10 C    0 0 0   11 C    0 1 0
                                    12 C    0 0 0   15 C    0 0 0
  13 C    2     2.8495     5.3847    5 C    0 1 0    6 C    0 0 0
  13 C    4     3.7695     7.1233    1 C    0 0 0    1 C    1 0 0    2 C    0 0 0
                                     2 C    0 1 0
  13 C    6     4.2742     8.0771    8 C    0 0 0    8 C    1 1 0    8 C    0 1 0
                                    14 C    0 0 0   14 C   -1 0 0   14 C    0 1 0
  13 C    5     4.9354     9.3266    9 C    1 1 0   10 C    1 0 0   11 C    0 0 0
                                    12 C    0 1 0   15 C   -1 0 0

  14 C    2     1.4247     2.6924    5 C    0 0 0    6 C    0 0 0
  14 C    5     2.4677     4.6633    9 C    1 0 0   10 C    1 0 0   11 C    0 0 0
                                    12 C    0 0 0   15 C    0 0 0
  14 C    2     2.8495     5.3847    1 C    1 0 0    2 C    0 0 0
  14 C    6     3.7695     7.1233    3 C    0 0 0    3 C    1 0 0    4 C    1 0 0
                                     4 C    0-1 0    7 C    0 0 0    7 C    0-1 0
  14 C    6     4.2742     8.0771    8 C    0 0 0    8 C    1 1 0    8 C    1 0 0
                                    13 C    0 0 0   13 C    1 0 0   13 C    0-1 0
  14 C    5     4.9354     9.3266    9 C    0 0 0   10 C    0-1 0   11 C    1 1 0
                                    12 C    1 0 0   15 C    0-1 0

  15 C    3     1.4247     2.6924    1 C    1 0 0    6 C    0 0 0    7 C    0 0 0
  15 C    5     2.4677     4.6633    8 C    1 1 0   10 C    1 0 0   12 C    0 0 0
                                    13 C    0 0 0   14 C    0 0 0
  15 C    1     2.8495     5.3847    3 C    0 0 0
  15 C    6     3.7695     7.1233    2 C    0 0 0    2 C    1 1 0    4 C    0 0 0
                                     4 C    1 0 0    5 C    0 0 0    5 C    0 1 0
  15 C    6     4.2742     8.0771    9 C    0 0 0    9 C    1 1 0    9 C    1 0 0
                                    11 C    0 0 0   11 C    1 1 0   11 C    0 1 0
  15 C    5     4.9354     9.3266    8 C    0 0 0   10 C    0 0 0   12 C    1 1 0
                                    13 C    1 0 0   14 C    0 1 0


 SYMMETRY ALLOWED INTERNAL DEGREE(S) OF FREEDOM:  42
 TTTTTTTTTTTTTTTTTTTTTTTTTTTTTT SYMM        TELAPSE        2.47 TCPU        1.06
 TTTTTTTTTTTTTTTTTTTTTTTTTTTTTT INT_SCREEN  TELAPSE        2.47 TCPU        1.06

 *******************************************************************************
 *                             OPTIMIZATION STARTS                             *
 *******************************************************************************
 RECLASIFICATION OF INDICES FOR INTEGRAL CALC ACCORDING TO DIFFERENT CRITERIA:
           FIXDELTE                  FIXDELTX              FIXDELTN
          0.10000000               0.80000000                 42
 DEFAULT MAX NUM OF POINTS  100
 *******************************************************************************

 *******************************************************************************
 COORDINATE OPTIMIZATION - POINT    1
 INFORMATION **** EXCBUF **** EXCH. BIPO BUFFER: WORDS USED =           0

 DFT PARAMETERS

     ATOM       ELECTRONS   NET CHARGE   R(ANGSTROM)
   1   6  C       6.0000      0.0000     0.77000000

 SIZE OF GRID=     502722
 TTTTTTTTTTTTTTTTTTTTTTTTTTTTTT MAKE_GRID2  TELAPSE        2.83 TCPU        1.41
 BECKE WEIGHT FUNCTION
 RADSAFE =     2.00
 TOLERANCES - DENSITY:10**- 6; POTENTIAL:10**- 9; GRID WGT:10**-14

 RADIAL INTEGRATION  - INTERVALS (POINTS,UPPER LIMIT):            1( 75,  4.0*R)

 ANGULAR INTEGRATION - INTERVALS (ACCURACY LEVEL [N. POINTS] UPPER LIMIT):
  1(  4[  86]   0.2)  2(  8[ 194]   0.5)  3( 12[ 350]   0.9)  4( 16[ 974]   3.5)
  5( 12[ 350]9999.0)
 TTTTTTTTTTTTTTTTTTTTTTTTTTTTTT INT_CALC    TELAPSE        2.85 TCPU        1.43

 *******************************************************************************
 Final                                                                           
 CRYSTAL - SCF - TYPE OF CALCULATION :  RESTRICTED CLOSED SHELL
 *******************************************************************************

 CAPPA:IS1  8;IS2  8;IS3  8; K PTS MONK NET 260; SYMMOPS:K SPACE   2;G SPACE   1

 TTTTTTTTTTTTTTTTTTTTTTTTTTTTTT SDIK        TELAPSE        2.91 TCPU        1.49

 AAAAAAAAAAAAAAAAAAAAAAAAAAAAAAAAAAAAAAAAAAAAAAAAAAAAAAAAAAAAAAAAAAAAAAAAAAAAAAA
         ATOMIC WAVEFUNCTION(S)


 NUCLEAR CHARGE  6.0  SYMMETRY SPECIES            S    P
 N. ELECTRONS    6.0  NUMBER OF PRIMITIVE GTOS   10    6
                      NUMBER OF CONTRACTED GTOS   4    3
                      NUMBER OF CLOSED SHELLS     2    0
                      OPEN SHELL OCCUPATION       0    2

  ZNUC SCFIT  TOTAL HF ENERGY   KINETIC ENERGY   VIRIAL THEOREM ACCURACY
   6.0  10   -3.768111494E+01  3.771190961E+01 -1.999183423E+00  3.4E-06

 AAAAAAAAAAAAAAAAAAAAAAAAAAAAAAAAAAAAAAAAAAAAAAAAAAAAAAAAAAAAAAAAAAAAAAAAAAAAAAA

 CHARGE NORMALIZATION FACTOR   1.00000000
 TOTAL ATOMIC CHARGES:
   6.0000000   6.0000000   6.0000000   6.0000000   6.0000000   6.0000000
   6.0000000   6.0000000   6.0000000   6.0000000   6.0000000   6.0000000
   6.0000000   6.0000000   6.0000000
 TTTTTTTTTTTTTTTTTTTTTTTTTTTTTT MOQGAD      TELAPSE        2.92 TCPU        1.50
 TTTTTTTTTTTTTTTTTTTTTTTTTTTTTT SHELLXN     TELAPSE        3.51 TCPU        2.09
 TTTTTTTTTTTTTTTTTTTTTTTTTTTTTT MONMO3      TELAPSE        3.63 TCPU        2.21
 NUMERICALLY INTEGRATED DENSITY     89.9997955594
 TTTTTTTTTTTTTTTTTTTTTTTTTTTTTT NUMDFT      TELAPSE        3.92 TCPU        2.50
 CYC   0 ETOT(AU) -5.739886473722E+02 DETOT -5.74E+02 tst  0.00E+00 PX  1.00E+00
 TTTTTTTTTTTTTTTTTTTTTTTTTTTTTT DIIS        TELAPSE        3.93 TCPU        2.51
 TTTTTTTTTTTTTTTTTTTTTTTTTTTTTT FDIK        TELAPSE        4.09 TCPU        2.67
 INSULATING STATE
 TOP OF VALENCE BANDS -    BAND     45; K   80; EIG -2.3902777E-01 AU
 TOP OF VALENCE BANDS -    BAND     45; K    1; EIG -2.6901997E-01 AU
 BOTTOM OF VIRTUAL BANDS - BAND     46; K   88; EIG -2.3483491E-01 AU
 INDIRECT ENERGY BAND GAP:   0.1141 eV
 BOTTOM OF VIRTUAL BANDS - BAND     46; K    1; EIG -2.1042253E-01 AU
 TTTTTTTTTTTTTTTTTTTTTTTTTTTTTT PDIG        TELAPSE        4.14 TCPU        2.71
 CHARGE NORMALIZATION FACTOR   1.00000000
 TOTAL ATOMIC CHARGES:
   6.1274725   6.0989827   6.1244400   6.1002323   5.9683539   6.0398762
   6.0399907   6.0837836   5.6209066   6.0286380   6.0339509   5.9516423
   6.0080668   5.7873632   5.9863004
 TTTTTTTTTTTTTTTTTTTTTTTTTTTTTT MOQGAD      TELAPSE        4.14 TCPU        2.71
 TTTTTTTTTTTTTTTTTTTTTTTTTTTTTT SHELLXN     TELAPSE        4.83 TCPU        3.40
 TTTTTTTTTTTTTTTTTTTTTTTTTTTTTT MONMO3      TELAPSE        4.96 TCPU        3.54
 NUMERICALLY INTEGRATED DENSITY     89.9998448203
 TTTTTTTTTTTTTTTTTTTTTTTTTTTTTT NUMDFT      TELAPSE        5.22 TCPU        3.80
 CYC   1 ETOT(AU) -5.704598748191E+02 DETOT  3.53E+00 tst  0.00E+00 PX  1.00E+00
 TTTTTTTTTTTTTTTTTTTTTTTTTTTTTT DIIS        TELAPSE        5.24 TCPU        3.81
 DIIS TEST: 0.82511E+00 AT SCF   CYCLE   1 - MIX   30 %
 TTTTTTTTTTTTTTTTTTTTTTTTTTTTTT FDIK        TELAPSE        5.40 TCPU        3.97
 POSSIBLY CONDUCTING STATE - EFERMI(AU) -1.9465254E-01 (RES. CHARGE  1.82E-12;IT. 12)
 TTTTTTTTTTTTTTTTTTTTTTTTTTTTTT PDIG        TELAPSE        5.50 TCPU        4.07
 CHARGE NORMALIZATION FACTOR   1.00000000
 TOTAL ATOMIC CHARGES:
   5.7149326   5.7741797   5.7591274   5.7402949   5.9863073   5.9301943
   5.6123577   5.1828311   7.7402121   5.9105689   5.8388714   6.0337777
   6.0090897   6.8429320   5.9243231
 TTTTTTTTTTTTTTTTTTTTTTTTTTTTTT MOQGAD      TELAPSE        5.50 TCPU        4.07
 TTTTTTTTTTTTTTTTTTTTTTTTTTTTTT SHELLXN     TELAPSE        6.19 TCPU        4.76
 TTTTTTTTTTTTTTTTTTTTTTTTTTTTTT MONMO3      TELAPSE        6.32 TCPU        4.89
 NUMERICALLY INTEGRATED DENSITY     89.9998132327
 TTTTTTTTTTTTTTTTTTTTTTTTTTTTTT NUMDFT      TELAPSE        6.67 TCPU        5.24
 CYC   2 ETOT(AU) -5.694969646586E+02 DETOT  9.63E-01 tst  4.02E-02 PX  3.00E-01
 TTTTTTTTTTTTTTTTTTTTTTTTTTTTTT DIIS        TELAPSE        6.70 TCPU        5.27
 DIIS TEST: 0.89802E+01 AT SCF   CYCLE   2 - DIIS ACTIVE - HISTORY:     2 CYCLES
 TTTTTTTTTTTTTTTTTTTTTTTTTTTTTT FDIK        TELAPSE        6.88 TCPU        5.45
 POSSIBLY CONDUCTING STATE - EFERMI(AU) -1.5112424E-01 (RES. CHARGE  4.61E-12;IT. 14)
 TTTTTTTTTTTTTTTTTTTTTTTTTTTTTT PDIG        TELAPSE        6.97 TCPU        5.54
 CHARGE NORMALIZATION FACTOR   1.00000000
 TOTAL ATOMIC CHARGES:
   5.9660971   5.9227488   5.8464855   5.8862380   5.8989209   5.9038805
   6.2481289   6.4491742   5.7348726   6.3623979   5.9938906   5.9790405
   5.9530817   5.8259623   6.0290805
 TTTTTTTTTTTTTTTTTTTTTTTTTTTTTT MOQGAD      TELAPSE        6.97 TCPU        5.54
 TTTTTTTTTTTTTTTTTTTTTTTTTTTTTT SHELLXN     TELAPSE        7.66 TCPU        6.23
 TTTTTTTTTTTTTTTTTTTTTTTTTTTTTT MONMO3      TELAPSE        7.79 TCPU        6.36
 NUMERICALLY INTEGRATED DENSITY     89.9998028321
 TTTTTTTTTTTTTTTTTTTTTTTTTTTTTT NUMDFT      TELAPSE        8.17 TCPU        6.73
 CYC   3 ETOT(AU) -5.704706428164E+02 DETOT -9.74E-01 tst  7.45E-02 PX  2.94E-01
 TTTTTTTTTTTTTTTTTTTTTTTTTTTTTT DIIS        TELAPSE        8.20 TCPU        6.76
 DIIS TEST: 0.82579E+00 AT SCF   CYCLE   3 - DIIS ACTIVE - HISTORY:     3 CYCLES
 TTTTTTTTTTTTTTTTTTTTTTTTTTTTTT FDIK        TELAPSE        8.37 TCPU        6.94
 POSSIBLY CONDUCTING STATE - EFERMI(AU) -1.6550572E-01 (RES. CHARGE  4.49E-10;IT. 12)
 TTTTTTTTTTTTTTTTTTTTTTTTTTTTTT PDIG        TELAPSE        8.47 TCPU        7.04
 CHARGE NORMALIZATION FACTOR   1.00000000
 TOTAL ATOMIC CHARGES:
   6.0001567   6.0618777   6.0844343   6.0803523   6.0854907   6.0555248
   5.8257725   5.6892422   6.0672050   5.7640656   6.0641452   6.0660438
   6.0673086   6.0955990   5.9927815
 TTTTTTTTTTTTTTTTTTTTTTTTTTTTTT MOQGAD      TELAPSE        8.47 TCPU        7.04
 TTTTTTTTTTTTTTTTTTTTTTTTTTTTTT SHELLXN     TELAPSE        9.16 TCPU        7.73
 TTTTTTTTTTTTTTTTTTTTTTTTTTTTTT MONMO3      TELAPSE        9.30 TCPU        7.86
 NUMERICALLY INTEGRATED DENSITY     89.9998115575
 TTTTTTTTTTTTTTTTTTTTTTTTTTTTTT NUMDFT      TELAPSE        9.67 TCPU        8.24
 CYC   4 ETOT(AU) -5.705210074194E+02 DETOT -5.04E-02 tst  1.11E-02 PX  9.51E-02
 TTTTTTTTTTTTTTTTTTTTTTTTTTTTTT DIIS        TELAPSE        9.70 TCPU        8.27
 DIIS TEST: 0.49368E+00 AT SCF   CYCLE   4 - DIIS ACTIVE - HISTORY:     4 CYCLES
 TTTTTTTTTTTTTTTTTTTTTTTTTTTTTT FDIK        TELAPSE        9.89 TCPU        8.45
 POSSIBLY CONDUCTING STATE - EFERMI(AU) -1.8335540E-01 (RES. CHARGE  4.97E-12;IT. 14)
 TTTTTTTTTTTTTTTTTTTTTTTTTTTTTT PDIG        TELAPSE        9.97 TCPU        8.53
 CHARGE NORMALIZATION FACTOR   1.00000000
 TOTAL ATOMIC CHARGES:
   6.0695688   6.0215570   6.0170637   6.0005532   5.8442318   6.0004353
   5.9187435   5.9579455   6.1950846   6.1522839   5.9673971   5.9549931
   5.9909052   5.9412885   5.9679491
 TTTTTTTTTTTTTTTTTTTTTTTTTTTTTT MOQGAD      TELAPSE        9.97 TCPU        8.53
 TTTTTTTTTTTTTTTTTTTTTTTTTTTTTT SHELLXN     TELAPSE       10.67 TCPU        9.22
 TTTTTTTTTTTTTTTTTTTTTTTTTTTTTT MONMO3      TELAPSE       10.80 TCPU        9.36
 NUMERICALLY INTEGRATED DENSITY     89.9998167995
 TTTTTTTTTTTTTTTTTTTTTTTTTTTTTT NUMDFT      TELAPSE       11.05 TCPU        9.61
 CYC   5 ETOT(AU) -5.705664201597E+02 DETOT -4.54E-02 tst  6.95E-03 PX  5.71E-02
 TTTTTTTTTTTTTTTTTTTTTTTTTTTTTT DIIS        TELAPSE       11.07 TCPU        9.63
 DIIS TEST: 0.14834E+00 AT SCF   CYCLE   5 - DIIS ACTIVE - HISTORY:     5 CYCLES
 TTTTTTTTTTTTTTTTTTTTTTTTTTTTTT FDIK        TELAPSE       11.25 TCPU        9.81
 INSULATING STATE
 TOP OF VALENCE BANDS -    BAND     45; K   76; EIG -1.8372763E-01 AU
 TOP OF VALENCE BANDS -    BAND     45; K    1; EIG -2.0746405E-01 AU
 BOTTOM OF VIRTUAL BANDS - BAND     46; K   34; EIG -1.8260201E-01 AU
 INDIRECT ENERGY BAND GAP:   0.0306 eV
 BOTTOM OF VIRTUAL BANDS - BAND     46; K    1; EIG -1.5621188E-01 AU
 TTTTTTTTTTTTTTTTTTTTTTTTTTTTTT PDIG        TELAPSE       11.30 TCPU        9.86
 CHARGE NORMALIZATION FACTOR   1.00000000
 TOTAL ATOMIC CHARGES:
   6.0210470   5.9909978   5.9801908   5.9842538   5.9894341   6.0051415
   6.0808647   5.9703582   5.9725134   5.9987742   5.9882552   5.9579740
   5.9635803   6.1209026   5.9757124
 TTTTTTTTTTTTTTTTTTTTTTTTTTTTTT MOQGAD      TELAPSE       11.30 TCPU        9.86
 TTTTTTTTTTTTTTTTTTTTTTTTTTTTTT SHELLXN     TELAPSE       12.00 TCPU       10.55
 TTTTTTTTTTTTTTTTTTTTTTTTTTTTTT MONMO3      TELAPSE       12.13 TCPU       10.68
 NUMERICALLY INTEGRATED DENSITY     89.9998189771
 TTTTTTTTTTTTTTTTTTTTTTTTTTTTTT NUMDFT      TELAPSE       12.38 TCPU       10.94
 CYC   6 ETOT(AU) -5.705765272451E+02 DETOT -1.01E-02 tst  2.06E-03 PX  3.71E-02
 TTTTTTTTTTTTTTTTTTTTTTTTTTTTTT DIIS        TELAPSE       12.40 TCPU       10.95
 DIIS TEST: 0.66535E-01 AT SCF   CYCLE   6 - DIIS ACTIVE - HISTORY:     6 CYCLES
 TTTTTTTTTTTTTTTTTTTTTTTTTTTTTT FDIK        TELAPSE       12.58 TCPU       11.13
 POSSIBLY CONDUCTING STATE - EFERMI(AU) -1.8177968E-01 (RES. CHARGE  2.27E-13;IT. 10)
 TTTTTTTTTTTTTTTTTTTTTTTTTTTTTT PDIG        TELAPSE       12.67 TCPU       11.22
 CHARGE NORMALIZATION FACTOR   1.00000000
 TOTAL ATOMIC CHARGES:
   6.0012125   5.9978576   5.9816450   5.9888029   5.9855878   5.9859356
   5.9922488   6.0108930   6.0373518   6.0480733   6.0043498   5.9984799
   6.0063437   5.9714586   5.9897597
 TTTTTTTTTTTTTTTTTTTTTTTTTTTTTT MOQGAD      TELAPSE       12.67 TCPU       11.22
 TTTTTTTTTTTTTTTTTTTTTTTTTTTTTT SHELLXN     TELAPSE       13.36 TCPU       11.91
 TTTTTTTTTTTTTTTTTTTTTTTTTTTTTT MONMO3      TELAPSE       13.49 TCPU       12.04
 NUMERICALLY INTEGRATED DENSITY     89.9998173763
 TTTTTTTTTTTTTTTTTTTTTTTTTTTTTT NUMDFT      TELAPSE       13.75 TCPU       12.30
 CYC   7 ETOT(AU) -5.705841301854E+02 DETOT -7.60E-03 tst  4.39E-04 PX  2.30E-02
 TTTTTTTTTTTTTTTTTTTTTTTTTTTTTT DIIS        TELAPSE       13.77 TCPU       12.31
 DIIS TEST: 0.62340E-02 AT SCF   CYCLE   7 - DIIS ACTIVE - HISTORY:     7 CYCLES
 TTTTTTTTTTTTTTTTTTTTTTTTTTTTTT FDIK        TELAPSE       13.95 TCPU       12.49
 POSSIBLY CONDUCTING STATE - EFERMI(AU) -1.8054176E-01 (RES. CHARGE  3.35E-10;IT. 10)
 TTTTTTTTTTTTTTTTTTTTTTTTTTTTTT PDIG        TELAPSE       14.04 TCPU       12.58
 CHARGE NORMALIZATION FACTOR   1.00000000
 TOTAL ATOMIC CHARGES:
   6.0168414   6.0006747   5.9909891   5.9953287   5.9441104   5.9974572
   5.9997053   5.9743620   5.9843196   6.0784527   6.0049653   5.9926649
   6.0080496   6.0107169   6.0013622
 TTTTTTTTTTTTTTTTTTTTTTTTTTTTTT MOQGAD      TELAPSE       14.04 TCPU       12.59
 TTTTTTTTTTTTTTTTTTTTTTTTTTTTTT SHELLXN     TELAPSE       14.73 TCPU       13.27
 TTTTTTTTTTTTTTTTTTTTTTTTTTTTTT MONMO3      TELAPSE       14.86 TCPU       13.41
 NUMERICALLY INTEGRATED DENSITY     89.9998175264
 TTTTTTTTTTTTTTTTTTTTTTTTTTTTTT NUMDFT      TELAPSE       15.12 TCPU       13.66
 CYC   8 ETOT(AU) -5.705843705682E+02 DETOT -2.40E-04 tst  7.25E-05 PX  7.08E-03
 TTTTTTTTTTTTTTTTTTTTTTTTTTTTTT DIIS        TELAPSE       15.14 TCPU       13.68
 DIIS TEST: 0.40251E-02 AT SCF   CYCLE   8 - DIIS ACTIVE - HISTORY:     8 CYCLES
 TTTTTTTTTTTTTTTTTTTTTTTTTTTTTT FDIK        TELAPSE       15.32 TCPU       13.86
 POSSIBLY CONDUCTING STATE - EFERMI(AU) -1.8031214E-01 (RES. CHARGE  3.55E-14;IT. 10)
 TTTTTTTTTTTTTTTTTTTTTTTTTTTTTT PDIG        TELAPSE       15.41 TCPU       13.95
 CHARGE NORMALIZATION FACTOR   1.00000000
 TOTAL ATOMIC CHARGES:
   6.0240731   6.0080790   5.9959215   5.9968755   5.9474498   5.9984208
   5.9954408   6.0016003   6.0106280   6.0394939   6.0032359   5.9917577
   5.9990180   5.9953524   5.9926533
 TTTTTTTTTTTTTTTTTTTTTTTTTTTTTT MOQGAD      TELAPSE       15.41 TCPU       13.95
 TTTTTTTTTTTTTTTTTTTTTTTTTTTTTT SHELLXN     TELAPSE       16.10 TCPU       14.64
 TTTTTTTTTTTTTTTTTTTTTTTTTTTTTT MONMO3      TELAPSE       16.23 TCPU       14.77
 NUMERICALLY INTEGRATED DENSITY     89.9998170836
 TTTTTTTTTTTTTTTTTTTTTTTTTTTTTT NUMDFT      TELAPSE       16.49 TCPU       15.02
 CYC   9 ETOT(AU) -5.705847279488E+02 DETOT -3.57E-04 tst  4.47E-05 PX  5.48E-03
 TTTTTTTTTTTTTTTTTTTTTTTTTTTTTT DIIS        TELAPSE       16.51 TCPU       15.05
 DIIS TEST: 0.89163E-03 AT SCF   CYCLE   9 - DIIS ACTIVE - HISTORY:     9 CYCLES
 TTTTTTTTTTTTTTTTTTTTTTTTTTTTTT FDIK        TELAPSE       16.69 TCPU       15.22
 POSSIBLY CONDUCTING STATE - EFERMI(AU) -1.8018617E-01 (RES. CHARGE  6.41E-11;IT. 10)
 TTTTTTTTTTTTTTTTTTTTTTTTTTTTTT PDIG        TELAPSE       16.78 TCPU       15.31
 CHARGE NORMALIZATION FACTOR   1.00000000
 TOTAL ATOMIC CHARGES:
   6.0248840   6.0077316   5.9962943   6.0000130   5.9611287   5.9973587
   5.9994809   5.9886936   6.0024048   6.0590695   6.0038660   5.9842665
   5.9994592   5.9868215   5.9885278
 TTTTTTTTTTTTTTTTTTTTTTTTTTTTTT MOQGAD      TELAPSE       16.78 TCPU       15.32
 TTTTTTTTTTTTTTTTTTTTTTTTTTTTTT SHELLXN     TELAPSE       17.47 TCPU       16.00
 TTTTTTTTTTTTTTTTTTTTTTTTTTTTTT MONMO3      TELAPSE       17.60 TCPU       16.14
 NUMERICALLY INTEGRATED DENSITY     89.9998171987
 TTTTTTTTTTTTTTTTTTTTTTTTTTTTTT NUMDFT      TELAPSE       17.85 TCPU       16.39
 CYC  10 ETOT(AU) -5.705848185428E+02 DETOT -9.06E-05 tst  5.67E-06 PX  2.81E-03
 TTTTTTTTTTTTTTTTTTTTTTTTTTTTTT DIIS        TELAPSE       17.87 TCPU       16.41
 DIIS TEST: 0.26883E-03 AT SCF   CYCLE  10 - DIIS ACTIVE - HISTORY:    10 CYCLES
 TTTTTTTTTTTTTTTTTTTTTTTTTTTTTT FDIK        TELAPSE       18.05 TCPU       16.59
 POSSIBLY CONDUCTING STATE - EFERMI(AU) -1.8014113E-01 (RES. CHARGE  5.01E-11;IT.  8)
 TTTTTTTTTTTTTTTTTTTTTTTTTTTTTT PDIG        TELAPSE       18.15 TCPU       16.68
 CHARGE NORMALIZATION FACTOR   1.00000000
 TOTAL ATOMIC CHARGES:
   6.0224825   6.0077008   5.9974991   5.9984612   5.9553417   5.9974483
   5.9965938   5.9965752   6.0025536   6.0580870   6.0023921   5.9895544
   6.0013568   5.9831767   5.9907767
 TTTTTTTTTTTTTTTTTTTTTTTTTTTTTT MOQGAD      TELAPSE       18.15 TCPU       16.68
 TTTTTTTTTTTTTTTTTTTTTTTTTTTTTT SHELLXN     TELAPSE       18.84 TCPU       17.37
 TTTTTTTTTTTTTTTTTTTTTTTTTTTTTT MONMO3      TELAPSE       18.97 TCPU       17.50
 NUMERICALLY INTEGRATED DENSITY     89.9998170818
 TTTTTTTTTTTTTTTTTTTTTTTTTTTTTT NUMDFT      TELAPSE       19.33 TCPU       17.86
 CYC  11 ETOT(AU) -5.705848452290E+02 DETOT -2.67E-05 tst  1.11E-06 PX  1.48E-03
 TTTTTTTTTTTTTTTTTTTTTTTTTTTTTT DIIS        TELAPSE       19.36 TCPU       17.90
 DIIS TEST: 0.14771E-04 AT SCF   CYCLE  11 - DIIS ACTIVE - HISTORY:    11 CYCLES
 TTTTTTTTTTTTTTTTTTTTTTTTTTTTTT FDIK        TELAPSE       19.55 TCPU       18.08
 POSSIBLY CONDUCTING STATE - EFERMI(AU) -1.8014286E-01 (RES. CHARGE  3.12E-10;IT.  6)
 TTTTTTTTTTTTTTTTTTTTTTTTTTTTTT PDIG        TELAPSE       19.64 TCPU       18.17
 CHARGE NORMALIZATION FACTOR   1.00000000
 TOTAL ATOMIC CHARGES:
   6.0227889   6.0076096   5.9962433   5.9987242   5.9546888   5.9968943
   5.9951016   5.9969986   6.0026827   6.0576549   6.0041409   5.9892155
   6.0017327   5.9837533   5.9917707
 TTTTTTTTTTTTTTTTTTTTTTTTTTTTTT MOQGAD      TELAPSE       19.64 TCPU       18.17
 TTTTTTTTTTTTTTTTTTTTTTTTTTTTTT SHELLXN     TELAPSE       20.33 TCPU       18.86
 TTTTTTTTTTTTTTTTTTTTTTTTTTTTTT MONMO3      TELAPSE       20.46 TCPU       18.99
 NUMERICALLY INTEGRATED DENSITY     89.9998170826
 TTTTTTTTTTTTTTTTTTTTTTTTTTTTTT NUMDFT      TELAPSE       20.72 TCPU       19.24
 CYC  12 ETOT(AU) -5.705848462511E+02 DETOT -1.02E-06 tst  1.94E-08 PX  2.59E-04
 TTTTTTTTTTTTTTTTTTTTTTTTTTTTTT DIIS        TELAPSE       20.74 TCPU       19.26
 DIIS TEST: 0.46329E-05 AT SCF   CYCLE  12 - DIIS ACTIVE - HISTORY:    12 CYCLES
 TTTTTTTTTTTTTTTTTTTTTTTTTTTTTT FDIK        TELAPSE       20.92 TCPU       19.44
 POSSIBLY CONDUCTING STATE - EFERMI(AU) -1.8014674E-01 (RES. CHARGE  5.33E-13;IT.  8)
 TTTTTTTTTTTTTTTTTTTTTTTTTTTTTT PDIG        TELAPSE       21.01 TCPU       19.53
 CHARGE NORMALIZATION FACTOR   1.00000000
 TOTAL ATOMIC CHARGES:
   6.0229351   6.0075566   5.9964049   5.9987656   5.9544641   5.9969508
   5.9967539   5.9960483   6.0024683   6.0574429   6.0039713   5.9891744
   6.0017366   5.9836440   5.9916831
 TTTTTTTTTTTTTTTTTTTTTTTTTTTTTT MOQGAD      TELAPSE       21.01 TCPU       19.53
 TTTTTTTTTTTTTTTTTTTTTTTTTTTTTT SHELLXN     TELAPSE       21.70 TCPU       20.22
 TTTTTTTTTTTTTTTTTTTTTTTTTTTTTT MONMO3      TELAPSE       21.83 TCPU       20.35
 NUMERICALLY INTEGRATED DENSITY     89.9998170950
 TTTTTTTTTTTTTTTTTTTTTTTTTTTTTT NUMDFT      TELAPSE       22.20 TCPU       20.73
 CYC  13 ETOT(AU) -5.705848467876E+02 DETOT -5.36E-07 tst  2.60E-08 PX  1.91E-04
 TTTTTTTTTTTTTTTTTTTTTTTTTTTTTT DIIS        TELAPSE       22.24 TCPU       20.76
 DIIS TEST: 0.20771E-05 AT SCF   CYCLE  13 - DIIS ACTIVE - HISTORY:    13 CYCLES
 TTTTTTTTTTTTTTTTTTTTTTTTTTTTTT FDIK        TELAPSE       22.42 TCPU       20.94
 POSSIBLY CONDUCTING STATE - EFERMI(AU) -1.8014695E-01 (RES. CHARGE  3.98E-13;IT.  6)
 TTTTTTTTTTTTTTTTTTTTTTTTTTTTTT PDIG        TELAPSE       22.51 TCPU       21.03
 CHARGE NORMALIZATION FACTOR   1.00000000
 TOTAL ATOMIC CHARGES:
   6.0229637   6.0075799   5.9964178   5.9986627   5.9548799   5.9970011
   5.9963436   5.9962732   6.0017998   6.0577432   6.0039268   5.9891875
   6.0015577   5.9841079   5.9915556
 TTTTTTTTTTTTTTTTTTTTTTTTTTTTTT MOQGAD      TELAPSE       22.51 TCPU       21.03
 TTTTTTTTTTTTTTTTTTTTTTTTTTTTTT SHELLXN     TELAPSE       23.20 TCPU       21.72
 TTTTTTTTTTTTTTTTTTTTTTTTTTTTTT MONMO3      TELAPSE       23.33 TCPU       21.85
 NUMERICALLY INTEGRATED DENSITY     89.9998171025
 TTTTTTTTTTTTTTTTTTTTTTTTTTTTTT NUMDFT      TELAPSE       23.71 TCPU       22.23
 CYC  14 ETOT(AU) -5.705848475213E+02 DETOT -7.34E-07 tst  5.40E-09 PX  1.24E-04
 TTTTTTTTTTTTTTTTTTTTTTTTTTTTTT DIIS        TELAPSE       23.74 TCPU       22.26
 DIIS TEST: 0.49993E-07 AT SCF   CYCLE  14 - DIIS ACTIVE - HISTORY:    14 CYCLES
 TTTTTTTTTTTTTTTTTTTTTTTTTTTTTT FDIK        TELAPSE       23.92 TCPU       22.44
 POSSIBLY CONDUCTING STATE - EFERMI(AU) -1.8014523E-01 (RES. CHARGE  1.74E-11;IT.  6)
 TTTTTTTTTTTTTTTTTTTTTTTTTTTTTT PDIG        TELAPSE       24.01 TCPU       22.52
 CHARGE NORMALIZATION FACTOR   1.00000000
 TOTAL ATOMIC CHARGES:
   6.0229182   6.0075621   5.9964080   5.9987243   5.9548698   5.9970557
   5.9963700   5.9962830   6.0017399   6.0577142   6.0039030   5.9891012
   6.0016049   5.9841365   5.9916092
 TTTTTTTTTTTTTTTTTTTTTTTTTTTTTT MOQGAD      TELAPSE       24.01 TCPU       22.53
 TTTTTTTTTTTTTTTTTTTTTTTTTTTTTT SHELLXN     TELAPSE       24.70 TCPU       23.22
 TTTTTTTTTTTTTTTTTTTTTTTTTTTTTT MONMO3      TELAPSE       24.83 TCPU       23.35
 NUMERICALLY INTEGRATED DENSITY     89.9998171022
 TTTTTTTTTTTTTTTTTTTTTTTTTTTTTT NUMDFT      TELAPSE       25.21 TCPU       23.72
 CYC  15 ETOT(AU) -5.705848474932E+02 DETOT  2.81E-08 tst  2.08E-10 PX  1.44E-05
 TTTTTTTTTTTTTTTTTTTTTTTTTTTTTT DIIS        TELAPSE       25.24 TCPU       23.76
 DIIS TEST: 0.81124E-08 AT SCF   CYCLE  15 - DIIS ACTIVE - HISTORY:    15 CYCLES
 TTTTTTTTTTTTTTTTTTTTTTTTTTTTTT FDIK        TELAPSE       25.43 TCPU       23.94
 POSSIBLY CONDUCTING STATE - EFERMI(AU) -1.8014484E-01 (RES. CHARGE  1.99E-13;IT.  6)
 TTTTTTTTTTTTTTTTTTTTTTTTTTTTTT PDIG        TELAPSE       25.52 TCPU       24.03
 CHARGE NORMALIZATION FACTOR   1.00000000
 TOTAL ATOMIC CHARGES:
   6.0229260   6.0075695   5.9964000   5.9987059   5.9548523   5.9970343
   5.9963928   5.9962478   6.0017304   6.0577317   6.0039261   5.9891361
   6.0015785   5.9841611   5.9916076
 TTTTTTTTTTTTTTTTTTTTTTTTTTTTTT MOQGAD      TELAPSE       25.52 TCPU       24.03
 TTTTTTTTTTTTTTTTTTTTTTTTTTTTTT SHELLXN     TELAPSE       26.21 TCPU       24.72
 TTTTTTTTTTTTTTTTTTTTTTTTTTTTTT MONMO3      TELAPSE       26.34 TCPU       24.85
 NUMERICALLY INTEGRATED DENSITY     89.9998171023
 TTTTTTTTTTTTTTTTTTTTTTTTTTTTTT NUMDFT      TELAPSE       26.71 TCPU       25.22
 CYC  16 ETOT(AU) -5.705848474902E+02 DETOT  3.03E-09 tst  3.79E-11 PX  4.97E-06
 TTTTTTTTTTTTTTTTTTTTTTTTTTTTTT DIIS        TELAPSE       26.75 TCPU       25.26
 DIIS TEST: 0.69754E-09 AT SCF   CYCLE  16 - DIIS ACTIVE - HISTORY:    16 CYCLES
 TTTTTTTTTTTTTTTTTTTTTTTTTTTTTT FDIK        TELAPSE       26.93 TCPU       25.43
 POSSIBLY CONDUCTING STATE - EFERMI(AU) -1.8014480E-01 (RES. CHARGE  2.23E-10;IT.  4)
 TTTTTTTTTTTTTTTTTTTTTTTTTTTTTT PDIG        TELAPSE       27.02 TCPU       25.52
 CHARGE NORMALIZATION FACTOR   1.00000000
 TOTAL ATOMIC CHARGES:
   6.0229334   6.0075622   5.9964035   5.9987039   5.9548520   5.9970330
   5.9963824   5.9962542   6.0017301   6.0577211   6.0039240   5.9891342
   6.0015892   5.9841699   5.9916069
 TTTTTTTTTTTTTTTTTTTTTTTTTTTTTT MOQGAD      TELAPSE       27.02 TCPU       25.52
 TTTTTTTTTTTTTTTTTTTTTTTTTTTTTT SHELLXN     TELAPSE       27.71 TCPU       26.22
 TTTTTTTTTTTTTTTTTTTTTTTTTTTTTT MONMO3      TELAPSE       27.84 TCPU       26.35
 NUMERICALLY INTEGRATED DENSITY     89.9998171022
 TTTTTTTTTTTTTTTTTTTTTTTTTTTTTT NUMDFT      TELAPSE       28.10 TCPU       26.60
 CYC  17 ETOT(AU) -5.705848474898E+02 DETOT  3.56E-10 tst  3.26E-12 PX  2.25E-06
 TTTTTTTTTTTTTTTTTTTTTTTTTTTTTT DIIS        TELAPSE       28.12 TCPU       26.63
 DIIS TEST: 0.10774E-09 AT SCF   CYCLE  17 - DIIS ACTIVE - HISTORY:    17 CYCLES
 TTTTTTTTTTTTTTTTTTTTTTTTTTTTTT FDIK        TELAPSE       28.30 TCPU       26.80
 POSSIBLY CONDUCTING STATE - EFERMI(AU) -1.8014483E-01 (RES. CHARGE  1.08E-10;IT.  4)
 TTTTTTTTTTTTTTTTTTTTTTTTTTTTTT PDIG        TELAPSE       28.39 TCPU       26.89
 CHARGE NORMALIZATION FACTOR   1.00000000
 TOTAL ATOMIC CHARGES:
   6.0229300   6.0075653   5.9964028   5.9987054   5.9548515   5.9970370
   5.9963851   5.9962533   6.0017300   6.0577208   6.0039237   5.9891330
   6.0015843   5.9841710   5.9916070
 TTTTTTTTTTTTTTTTTTTTTTTTTTTTTT MOQGAD      TELAPSE       28.39 TCPU       26.89
 TTTTTTTTTTTTTTTTTTTTTTTTTTTTTT SHELLXN     TELAPSE       29.08 TCPU       27.58
 +++ ENERGIES IN A.U. +++
 ::: EXT EL-POLE                                  -7.9828887055779E+02
 ::: EXT EL-SPHEROPOLE                             6.1558347607259E+00
 ::: BIELET ZONE E-E                               1.1958910975831E+03
 ::: TOTAL E-E                                     4.0375806178609E+02
 ::: TOTAL E-N + N-E                              -1.5866933863127E+03
 ::: TOTAL N-N                                     1.2525434594890E+02
 ::: KINETIC ENERGY                                5.6741828795473E+02
 ::: PSEUDO TOTAL   ENERGY                        -4.9026269062299E+02
 ::: VIRIAL COEFFICIENT                            1.0729478915613E+00
 TTTTTTTTTTTTTTTTTTTTTTTTTTTTTT MONMO3      TELAPSE       29.21 TCPU       27.71
 NUMERICALLY INTEGRATED DENSITY     89.9998171023
 TTTTTTTTTTTTTTTTTTTTTTTTTTTTTT NUMDFT      TELAPSE       29.58 TCPU       28.09
 CYC  18 ETOT(AU) -5.705848474939E+02 DETOT -4.12E-09 tst  1.07E-13 PX  2.25E-06

 == SCF ENDED - CONVERGENCE ON ENERGY      E(AU) -5.7058484749394E+02 CYCLES  18


 ENERGY EXPRESSION=HARTREE+FOCK EXCH*0.00000+(PBE        EXCH)*1.00000+PBE        CORR


 TOTAL ENERGY(DFT)(AU)( 18) -5.7058484749394E+02 DE-4.1E-09 tester 1.1E-13
 TTTTTTTTTTTTTTTTTTTTTTTTTTTTTT EDFT        TELAPSE       29.60 TCPU       28.10

 *******************************************************************************
 *                             FORCE CALCULATION                               *
 *******************************************************************************

 TTTTTTTTTTTTTTTTTTTTTTTTTTTTTT NUMDFG      TELAPSE       30.23 TCPU       28.73
 INFORMATION **** EXCPOG **** EXCH. BIPO BUFFER LENGTH (WORDS) =           0
 INFORMATION **** GENPOG **** BIPO BUFFER LENGTH (WORDS) =     1106600
 TTTTTTTTTTTTTTTTTTTTTTTTTTTTTT SHELXG      TELAPSE       32.60 TCPU       31.10

 CARTESIAN FORCES IN HARTREE/BOHR (ANALYTICAL)
   ATOM                     X                   Y                   Z
   1   6             1.001948539081E-02 -2.271134051619E-03 -3.520004220453E-10
   2   6            -1.872650379844E-02  1.555265997663E-02  9.474884538833E-10
   3   6            -3.042455215033E-02  2.871106881685E-02 -6.426343803210E-09
   4   6            -4.348556092391E-02  1.794128811534E-02  6.086651599792E-09
   5   6             4.064780815764E-02  2.346446857235E-02  1.672398399538E-09
   6   6             4.819161620562E-04 -1.497033681892E-02  9.403154133114E-09
   7   6            -2.684323990197E-02  1.725299904534E-02  1.531635201037E-08
   8   6             2.250061125868E-02 -1.674441289495E-02 -6.629415484832E-09
   9   6             3.960790350213E-03 -3.968369734397E-02  9.049537896557E-09
  10   6             3.284450401738E-02  1.094113656268E-02  2.766887972346E-09
  11   6             1.865397529615E-02 -1.965426477243E-02  4.052024816791E-09
  12   6            -1.364327916055E-03 -1.850420933325E-02 -2.003249865666E-08
  13   6             4.712540787889E-02 -1.549256941883E-02 -7.681324413434E-09
  14   6            -6.802933978030E-02 -3.492812170602E-02 -2.841452068627E-09
  15   6             1.263902595946E-02  4.838512525070E-02 -5.331577593440E-09

 RESULTANT FORCE     2.765565554341E-13 -1.040834085586E-13 -1.171598625440E-13

 SYMMETRY ALLOWED FORCES (ANALYTICAL) (DIRECTION, FORCE)

    1  7.2214696E-03    2  7.8062582E-03    3 -3.6434697E-10    4 -2.3177006E-02
    5 -8.2009312E-03    6  9.5717191E-10    7 -4.2982714E-02    8 -1.2554643E-02
    9 -6.6410641E-09   10 -4.3806393E-02   11 -3.1086798E-02   12  5.8497996E-09
   13 -8.8842663E-03   14  4.5260427E-02   15  1.7784266E-09   16  4.0948068E-03
   17 -6.8859115E-03   18  1.0115057E-08   19 -3.9512243E-02   20 -1.5709437E-02
   21  1.7580871E-08   22  1.3048213E-02   23  9.6983207E-03   24 -3.5261789E-09
   25  2.6511866E-02   26 -1.8532388E-02   27  1.2863525E-08   28 -8.3740963E-04
   29  3.3202043E-02   30  8.3380294E-09   31  2.0665510E-02   32  9.8207625E-03
   33  1.1648785E-08   34  1.3971431E-02   35 -6.6757685E-03   36 -1.2771895E-08
   37  4.6258038E-02   38  4.3834414E-02   39 -2.9351497E-09   40  2.2498162E-02
   41 -7.8854765E-02   42  1.7607846E-09
 TTTTTTTTTTTTTTTTTTTTTTTTTTTTTT TOTGRA      TELAPSE       33.08 TCPU       31.58
 INFORMATION **** opta001 **** GEOMETRY OUTPUT FILE
 CLASSICAL MODEL (SCHLEGEL) USED AS INITIAL HESSIAN MATRIX
 REFERENCE GEOMETRY DEFINED

 MAX GRADIENT      0.078855  THRESHOLD              0.000450 CONVERGED NO
 RMS GRADIENT      0.023690  THRESHOLD              0.000300 CONVERGED NO

 GRADIENT NORM     0.153526  GRADIENT THRESHOLD     0.500000

 EIGENVALUES OF THE ESTIMATED HESSIAN
  0.7310E-03  0.1330E-02  0.4089E-02  0.6386E-02  0.6989E-02  0.1272E-01
  0.1455E-01  0.2356E-01  0.3142E-01  0.3934E-01  0.4055E-01  0.5007E-01
  0.6400E-01  0.6673E-01  0.7056E-01  0.8418E-01  0.1117      0.1389    
  0.1663      0.1783      0.1860      0.2259      0.2910      0.3180    
  0.4100      0.4392      0.4737      0.5083      0.6455      0.6572    
  0.7460      0.9248      0.9580       1.044       1.104       1.134    
   1.157       1.162       1.214       1.220       1.435       1.462    
 NEWTON STEP ( 0.1122145060E+01) EXCEEDS TRUST RADIUS ( 0.5000000000E+00)
 LEVEL SHIFT     0.7309717340E-03

 INITIAL TRUST RADIUS    0.5000000000E+00

 PREDICTED ENERGY CHANGE    -0.220E-01

 INITIAL DISPLACEMENTS
 -0.060736  0.116020 -0.003955  0.039087  0.034332 -0.008577  0.022424 -0.059275
  0.060588 -0.061052 -0.008143 -0.000443  0.019482  0.004583 -0.074478  0.033333
  0.037746 -0.030063 -0.118502  0.014981 -0.007257  0.009503  0.124097 -0.009796
  0.185630 -0.284569  0.152957 -0.075930  0.080046  0.014055  0.032700 -0.003542
 -0.015053  0.083529  0.008049  0.026481 -0.028445 -0.040483  0.049507  0.059292
 -0.089624 -0.050772
 TTTTTTTTTTTTTTTTTTTTTTTTTTTTTT OPTI        TELAPSE       33.09 TCPU       31.59

 OPTOPTOPTOPTOPTOPTOPTOPTOPTOPTOPTOPTOPTOPTOPTOPTOPTOPTOPTOPTOPTOPTOPTOPTOPTOPT

 - INFORMATION ON SCF MOVED TO SCFOUT.LOG
 GEOMETRY OPTIMIZATION INFORMATION STORED IN OPTINFO.DAT

 OPTOPTOPTOPTOPTOPTOPTOPTOPTOPTOPTOPTOPTOPTOPTOPTOPTOPTOPTOPTOPTOPTOPTOPTOPTOPT
 *******************************************************************************
 COORDINATE OPTIMIZATION - POINT    2
 *******************************************************************************
 LATTICE PARAMETERS (ANGSTROMS AND DEGREES) - BOHR = 0.5291772083 ANGSTROM
 PRIMITIVE CELL - CENTRING CODE 1/0 VOLUME=   412.228566 - DENSITY  0.725 g/cm^3
         A              B              C           ALPHA      BETA       GAMMA 
     7.40317242     7.40317242     8.68503800    90.000000  90.000000 120.000000
 *******************************************************************************
 ATOMS IN THE ASYMMETRIC UNIT   15 - ATOMS IN THE UNIT CELL:   15
     ATOM                 X/A                 Y/B                 Z/C    
 *******************************************************************************
      1 T   6 C     1.115425959433E-01 -1.018598152011E-01  2.997672189845E-01
      2 T   6 C     4.484712401120E-01  2.242920008190E-01  2.995130139564E-01
      3 T   6 C     4.432912065513E-01 -4.500157976376E-01  3.036021613693E-01
      4 T   6 C     4.396690780648E-01 -1.122337490902E-01  2.997339564545E-01
      5 T   6 C    -2.205804698673E-01  2.221622709478E-01  2.954354251333E-01
      6 T   6 C    -2.185011845171E-01 -4.419455290986E-01  2.984570784178E-01
      7 T   6 C    -2.300578973657E-01 -1.107304410243E-01  2.999710138558E-01
      8 T   6 C     2.281410861368E-01  1.197614074312E-01  2.998816797290E-01
      9 T   6 C     2.233518479964E-01  4.203995286464E-01  3.091481068782E-01
     10 T   6 C     2.197657151885E-01 -2.148664062174E-01  2.998634811862E-01
     11 T   6 C    -4.426143289487E-01  1.109680329794E-01  2.981050421833E-01
     12 T   6 C    -4.396057590231E-01  4.452035846709E-01  3.005277575420E-01
     13 T   6 C    -4.499078715699E-01 -2.249584645115E-01  3.011276285323E-01
     14 T   6 C    -1.116566809705E-01  4.405698526007E-01  2.952457467001E-01
     15 T   6 C    -1.124196888409E-01 -2.156353642028E-01  2.996206890774E-01

 T = ATOM BELONGING TO THE ASYMMETRIC UNIT

 TOTAL ENERGY(DFT)(AU)( 16) -5.7061215245862E+02     DE (AU)   -2.730E-02

 UPDATED TRUST RADIUS     0.100E+01

 SYMMETRY ALLOWED FORCES  (COORDINATE, FORCE)

    1  1.6076463E-04    2  7.0194020E-03    3  6.0526943E-04    4 -9.8236511E-03
    5 -1.3854581E-02    6 -1.5099233E-04    7 -3.5225411E-02    8 -9.0218607E-03
    9 -2.8777805E-03   10 -3.3403828E-02   11 -2.7529005E-02   12 -9.1009345E-04
   13 -7.2593071E-03   14  1.9219410E-02   15  1.4918760E-03   16  3.1883821E-03
   17 -3.5728763E-03   18  6.3107544E-04   19 -1.8791449E-02   20 -1.2989581E-02
   21 -3.7489675E-04   22  3.4990652E-03   23  1.8738266E-02   24  3.9943841E-04
   25  2.3223088E-02   26 -2.6145742E-02   27  3.1995758E-03   28 -7.9640854E-03
   29  2.0743782E-02   30 -3.5813577E-04   31  1.0620667E-02   32  6.4568148E-03
   33 -9.7583619E-04   34  1.5167580E-02   35  8.0328459E-05   36 -6.2636258E-04
   37  2.8180112E-02   38  1.9264502E-02   39  2.7689134E-04   40  2.0266742E-02
   41 -3.9505066E-02   42  1.4258554E-03

 GRADIENT NORM     0.100638  GRADIENT THRESHOLD     0.500000

 EIGENVALUES OF THE ESTIMATED HESSIAN
  0.5382E-03  0.1135E-02  0.2791E-02  0.4139E-02  0.6429E-02  0.7624E-02
  0.1280E-01  0.1457E-01  0.2359E-01  0.3951E-01  0.4092E-01  0.5007E-01
  0.6402E-01  0.6673E-01  0.7024E-01  0.8381E-01  0.1118      0.1412    
  0.1670      0.1859      0.1992      0.2297      0.3082      0.3416    
  0.4119      0.4401      0.4764      0.5100      0.6495      0.7111    
  0.8096      0.9327       1.008       1.058       1.103       1.147    
   1.158       1.207       1.216       1.408       1.426       2.523    
 NEWTON STEP ( 0.5051022319E+02) EXCEEDS TRUST RADIUS ( 0.1000000000E+01)
 LEVEL SHIFT    -0.2236398627E-01

 PREDICTED ENERGY CHANGE    -0.526E-01

 MAX GRADIENT      0.039505  THRESHOLD              0.000450 CONVERGED NO
 RMS GRADIENT      0.015529  THRESHOLD              0.000300 CONVERGED NO
 MAX DISPLAC.      0.613866  THRESHOLD              0.001800 CONVERGED NO
 RMS DISPLAC.      0.154303  THRESHOLD              0.001200 CONVERGED NO
 TTTTTTTTTTTTTTTTTTTTTTTTTTTTTT OPTI        TELAPSE       61.80 TCPU       60.13
 *******************************************************************************
 COORDINATE OPTIMIZATION - POINT    3
 *******************************************************************************
 LATTICE PARAMETERS (ANGSTROMS AND DEGREES) - BOHR = 0.5291772083 ANGSTROM
 PRIMITIVE CELL - CENTRING CODE 1/0 VOLUME=   412.228566 - DENSITY  0.725 g/cm^3
         A              B              C           ALPHA      BETA       GAMMA 
     7.40317242     7.40317242     8.68503800    90.000000  90.000000 120.000000
 *******************************************************************************
 ATOMS IN THE ASYMMETRIC UNIT   15 - ATOMS IN THE UNIT CELL:   15
     ATOM                 X/A                 Y/B                 Z/C    
 *******************************************************************************
      1 T   6 C     1.118568823107E-01 -8.141590550575E-02  2.994688013028E-01
      2 T   6 C     4.568916489873E-01  2.280879958613E-01  2.983631344243E-01
      3 T   6 C     4.396557290682E-01 -4.622435099267E-01  2.999804786837E-01
      4 T   6 C     4.281593182959E-01 -1.161914795412E-01  2.980495805905E-01
      5 T   6 C    -2.169577981113E-01  2.222528781885E-01  2.990404777935E-01
      6 T   6 C    -2.092216889117E-01 -4.359825254632E-01  2.990019613319E-01
      7 T   6 C    -2.455770675161E-01 -1.114278949563E-01  2.988901734040E-01
      8 T   6 C     2.404345231363E-01  1.405934218091E-01  3.001082843131E-01
      9 T   6 C     2.245476308915E-01  3.685990579630E-01  3.170009124222E-01
     10 T   6 C     2.129534671828E-01 -1.994373684355E-01  2.987442202954E-01
     11 T   6 C    -4.391928117802E-01  1.101668828297E-01  2.963534255934E-01
     12 T   6 C    -4.282115618204E-01  4.473963620358E-01  2.984156104595E-01
     13 T   6 C    -4.617197063452E-01 -2.319137048680E-01  2.998839202924E-01
     14 T   6 C    -1.095854158482E-01  4.350906244891E-01  2.981082817095E-01
     15 T   6 C    -1.151442606497E-01 -2.024637233679E-01  2.985907373836E-01

 T = ATOM BELONGING TO THE ASYMMETRIC UNIT

 TOTAL ENERGY(DFT)(AU)( 19) -5.7065654548875E+02     DE (AU)   -4.439E-02

 UPDATED TRUST RADIUS     0.200E+01

 SYMMETRY ALLOWED FORCES  (COORDINATE, FORCE)

    1 -1.3325085E-02    2  1.6661739E-03    3  1.0324258E-03    4  2.5063382E-02
    5 -1.5934473E-02    6 -2.0782853E-03    7 -2.5600759E-02    8 -6.3492981E-03
    9  3.0427454E-03   10 -9.4730526E-03   11 -7.8338240E-03   12 -8.9619961E-05
   13 -1.6481198E-03   14 -1.9582465E-02   15 -2.4319811E-03   16 -1.0381290E-03
   17 -3.1562860E-03   18  6.8036938E-04   19  2.1062127E-02   20 -4.6297131E-03
   21  2.9877510E-04   22 -3.0331622E-02   23  3.4923069E-02   24  3.6947380E-03
   25  2.9137476E-02   26 -1.9916236E-02   27 -5.0344336E-03   28  1.2416699E-02
   29 -4.7251664E-03   30 -2.4969086E-03   31 -8.8300005E-03   32 -2.5901098E-03
   33  2.7305728E-03   34  6.6828627E-03   35  1.5559388E-02   36 -2.6027296E-03
   37 -4.5319465E-03   38 -2.4555804E-02   39 -1.3964144E-03   40  5.0962789E-03
   41  1.3787816E-02   42  7.1635296E-04

 GRADIENT NORM     0.087335  GRADIENT THRESHOLD     0.500000

 EIGENVALUES OF THE ESTIMATED HESSIAN
  0.6121E-03  0.1442E-02  0.4107E-02  0.6419E-02  0.6954E-02  0.1142E-01
  0.1442E-01  0.1573E-01  0.2413E-01  0.3937E-01  0.4565E-01  0.5081E-01
  0.6392E-01  0.6671E-01  0.6892E-01  0.8660E-01  0.1139      0.1413    
  0.1665      0.1859      0.1991      0.2304      0.3213      0.3303    
  0.4123      0.4310      0.4570      0.5115      0.6471      0.7130    
  0.7857      0.9143      0.9936       1.044       1.068       1.141    
   1.177       1.207       1.216       1.386       1.410       2.819    
 NEWTON STEP ( 0.2163268253E+02) EXCEEDS TRUST RADIUS ( 0.2000000000E+01)
 LEVEL SHIFT    -0.5277933618E-02

 PREDICTED ENERGY CHANGE    -0.616E-01

 MAX GRADIENT      0.034923  THRESHOLD              0.000450 CONVERGED NO
 RMS GRADIENT      0.013476  THRESHOLD              0.000300 CONVERGED NO
 MAX DISPLAC.      1.031874  THRESHOLD              0.001800 CONVERGED NO
 RMS DISPLAC.      0.308607  THRESHOLD              0.001200 CONVERGED NO
 TTTTTTTTTTTTTTTTTTTTTTTTTTTTTT OPTI        TELAPSE       94.75 TCPU       92.78
 *******************************************************************************
 COORDINATE OPTIMIZATION - POINT    4
 *******************************************************************************
 LATTICE PARAMETERS (ANGSTROMS AND DEGREES) - BOHR = 0.5291772083 ANGSTROM
 PRIMITIVE CELL - CENTRING CODE 1/0 VOLUME=   412.228566 - DENSITY  0.725 g/cm^3
         A              B              C           ALPHA      BETA       GAMMA 
     7.40317242     7.40317242     8.68503800    90.000000  90.000000 120.000000
 *******************************************************************************
 ATOMS IN THE ASYMMETRIC UNIT   15 - ATOMS IN THE UNIT CELL:   15
     ATOM                 X/A                 Y/B                 Z/C    
 *******************************************************************************
      1 T   6 C     1.124202180683E-01 -4.714927364718E-02  3.104019306568E-01
      2 T   6 C     4.693945734711E-01  2.350879927754E-01  3.002503700088E-01
      3 T   6 C     4.334646703043E-01 -4.821165453659E-01  2.944757899412E-01
      4 T   6 C     4.102100731695E-01 -1.229946283971E-01  3.043579306708E-01
      5 T   6 C    -2.145685205549E-01  2.204504732281E-01  2.830245242801E-01
      6 T   6 C    -1.939838714894E-01 -4.257678358382E-01  3.055147066061E-01
      7 T   6 C    -2.667102986871E-01 -1.143658907171E-01  3.126947954062E-01
      8 T   6 C     2.557223042837E-01  1.802355787114E-01  3.138627410621E-01
      9 T   6 C     2.297587858942E-01  2.812187402210E-01  2.556592210333E-01
     10 T   6 C     2.042005058491E-01 -1.753078019465E-01  3.053330167248E-01
     11 T   6 C    -4.373514768799E-01  1.079500324835E-01  3.002167944318E-01
     12 T   6 C    -4.090039979787E-01  4.533381196915E-01  2.978694367953E-01
     13 T   6 C    -4.809106116939E-01 -2.451277382032E-01  3.076939626495E-01
     14 T   6 C    -1.059206452029E-01  4.283110375311E-01  2.992996026349E-01
     15 T   6 C    -1.178328196637E-01 -1.826511494149E-01  3.093451770984E-01

 T = ATOM BELONGING TO THE ASYMMETRIC UNIT

 MAXIMUM ATOM DISPLACEMENT WITH RESPECT TO
 THE PRESENT REFERENCE GEOMETRY:   2.448664433204E+00

 REFERENCE GEOMETRY WILL BE CHANGED

 TOTAL ENERGY(DFT)(AU)( 19) -5.7030796972794E+02     DE (AU)    3.486E-01

 SYMMETRY ALLOWED FORCES  (COORDINATE, FORCE)

    1  1.6726345E-02    2 -1.0591522E-01    3  4.4835121E-03    4  8.5596511E-02
    5 -4.6606889E-03    6  3.4475978E-02    7  1.3714115E-02    8  4.4143633E-02
    9 -1.3722024E-02   10  3.1673082E-02   11  1.3387953E-02   12  1.0307290E-03
   13 -5.4919709E-03   14 -2.9572905E-02   15  2.8618696E-02   16  1.8752883E-02
   17 -1.0713855E-02   18 -2.8955802E-03   19  7.5341942E-02   20 -7.4448289E-03
   21 -3.4026336E-03   22  5.9834811E-01   23 -7.7755013E-01   24  4.9856948E-01
   25 -5.2823511E-01   26  7.0145652E-01   27 -4.3056832E-01   28  2.6523696E-02
   29  1.9010695E-03   30  9.1739870E-03   31 -1.6640719E-02   32 -7.5953484E-03
   33 -1.7207126E-02   34 -3.9464745E-02   35  1.1799494E-02   36  2.5810441E-03
   37 -2.1648188E-02   38 -6.0698033E-02   39 -1.4046575E-02   40 -2.7185362E-02
   41  4.5317258E-02   42 -3.8969467E-04

 GRADIENT NORM     1.486409  GRADIENT THRESHOLD     0.500000

 HESSIAN UPDATE SKIPPED

 EIGENVALUES OF THE ESTIMATED HESSIAN
  0.6121E-03  0.1442E-02  0.4107E-02  0.6419E-02  0.6954E-02  0.1142E-01
  0.1442E-01  0.1573E-01  0.2413E-01  0.3937E-01  0.4565E-01  0.5081E-01
  0.6392E-01  0.6671E-01  0.6892E-01  0.8660E-01  0.1139      0.1413    
  0.1665      0.1859      0.1991      0.2304      0.3213      0.3303    
  0.4123      0.4310      0.4570      0.5115      0.6471      0.7130    
  0.7857      0.9143      0.9936       1.044       1.068       1.141    
   1.177       1.207       1.216       1.386       1.410       2.819    
 NEWTON STEP ( 0.2936986697E+03) EXCEEDS TRUST RADIUS ( 0.2000000000E+01)
 LEVEL SHIFT    -0.8271907074E-01

 PREDICTED ENERGY CHANGE    -0.263E+01

 MAX GRADIENT      0.777550  THRESHOLD              0.000450 CONVERGED NO
 RMS GRADIENT      0.229358  THRESHOLD              0.000300 CONVERGED NO
 MAX DISPLAC.      1.119072  THRESHOLD              0.001800 CONVERGED NO
 RMS DISPLAC.      0.308607  THRESHOLD              0.001200 CONVERGED NO
 TTTTTTTTTTTTTTTTTTTTTTTTTTTTTT OPTI        TELAPSE      127.08 TCPU      124.78
 *******************************************************************************
 COORDINATE OPTIMIZATION - POINT    5
 *******************************************************************************
 LATTICE PARAMETERS (ANGSTROMS AND DEGREES) - BOHR = 0.5291772083 ANGSTROM
 PRIMITIVE CELL - CENTRING CODE 1/0 VOLUME=   412.228566 - DENSITY  0.725 g/cm^3
         A              B              C           ALPHA      BETA       GAMMA 
     7.40317242     7.40317242     8.68503800    90.000000  90.000000 120.000000
 *******************************************************************************
 ATOMS IN THE ASYMMETRIC UNIT   15 - ATOMS IN THE UNIT CELL:   15
     ATOM                 X/A                 Y/B                 Z/C    
 *******************************************************************************
      1 T   6 C     1.094675678351E-01 -7.841838262862E-02  3.191683970919E-01
      2 T   6 C     4.683691592502E-01  2.261986696270E-01  3.062898873390E-01
      3 T   6 C     4.325746559191E-01 -4.672240497940E-01  2.864357248588E-01
[...]
   8 C    1     2.3477     4.4365   12 C    0 0 0
   8 C    1     2.4049     4.5446    3 C    0 0 0
   8 C    1     2.4874     4.7004   10 C    0-1 0

   9 C    1     1.4462     2.7329    3 C    0 0 0
   9 C    1     1.4463     2.7331    8 C    0 0 0
   9 C    1     2.2818     4.3120   12 C    0 0 0
   9 C    1     2.2819     4.3121    2 C    0 0 0
   9 C    1     2.7500     5.1968   13 C    0 0 0
   9 C    1     2.7502     5.1972    1 C    0-1 0

  10 C    1     1.3907     2.6280    4 C    0 0 0
  10 C    1     1.4214     2.6860    1 C    0 0 0
  10 C    1     2.4032     4.5414   15 C   -1 0 0
  10 C    1     2.4689     4.6656   14 C   -1 0 0
  10 C    1     2.4713     4.6701   11 C    0 1 0
  10 C    1     2.4874     4.7004    8 C    0 1 0

  11 C    1     1.3934     2.6331    2 C    0 0 0
  11 C    1     1.4456     2.7318    5 C    0 0 0
  11 C    1     1.4951     2.8254    4 C    0-1 0
  11 C    1     2.4702     4.6679   12 C    0 0 0
  11 C    1     2.4713     4.6701   10 C    0-1 0
  11 C    1     2.4933     4.7116   14 C    0 0 0

  12 C    1     1.3934     2.6331    6 C    0 0 0
  12 C    1     1.4137     2.6714    2 C    0 0 0
  12 C    1     1.4532     2.7461    3 C    0 0 0
  12 C    1     2.2818     4.3120    9 C    0 0 0
  12 C    1     2.3477     4.4365    8 C    0 0 0
  12 C    1     2.3881     4.5129   14 C    0 0 0

  13 C    1     1.4214     2.6860    7 C    0 0 0
  13 C    1     1.4542     2.7480    4 C    0 0 0
  13 C    1     1.4684     2.7748    3 C    0 0 0
  13 C    1     2.4623     4.6531   12 C    0 0 0
  13 C    1     2.4975     4.7196   15 C    0 0 0
  13 C    1     2.5028     4.7296   11 C    0 1 0

  14 C    1     1.4024     2.6501    5 C    0 0 0
  14 C    1     1.4457     2.7319    6 C    0 0 0
  14 C    1     2.3881     4.5129   12 C    0 0 0
  14 C    1     2.4689     4.6656   10 C    1 0 0
  14 C    1     2.4933     4.7116   11 C    0 0 0
  14 C    1     2.6542     5.0158   15 C    0 0 0

  15 C    1     1.3907     2.6280    7 C    0 0 0
  15 C    1     1.4542     2.7481    1 C    1 0 0
  15 C    1     1.4952     2.8254    6 C    0 0 0
  15 C    1     2.4032     4.5414   10 C    1 0 0
  15 C    1     2.4569     4.6428   12 C    0 0 0
  15 C    1     2.4975     4.7196   13 C    0 0 0


 FINAL OPTIMIZED GEOMETRY - DIMENSIONALITY OF THE SYSTEM      3
 (NON PERIODIC DIRECTION: LATTICE PARAMETER FORMALLY SET TO 500)
 *******************************************************************************
 LATTICE PARAMETERS (ANGSTROMS AND DEGREES) - BOHR = 0.5291772083 ANGSTROM
 PRIMITIVE CELL - CENTRING CODE 1/0 VOLUME=   412.228566 - DENSITY  0.725 g/cm^3
         A              B              C           ALPHA      BETA       GAMMA 
     7.40317242     7.40317242     8.68503800    90.000000  90.000000 120.000000
 *******************************************************************************
 ATOMS IN THE ASYMMETRIC UNIT   15 - ATOMS IN THE UNIT CELL:   15
     ATOM                 X/A                 Y/B                 Z/C    
 *******************************************************************************
      1 T   6 C     1.113111612525E-01 -7.498166986792E-02  2.999966398695E-01
      2 T   6 C     4.656058647346E-01  2.304936099137E-01  3.000225301165E-01
      3 T   6 C     4.299949060370E-01 -4.717020317323E-01  2.999848999182E-01
      4 T   6 C     4.236921808090E-01 -1.203442334705E-01  3.000062419480E-01
      5 T   6 C    -2.113731621200E-01  2.313463556316E-01  2.999973263774E-01
      6 T   6 C    -2.071671674698E-01 -4.297528262100E-01  3.000104562901E-01
      7 T   6 C    -2.517243992014E-01 -1.204377672868E-01  3.000169248400E-01
      8 T   6 C     2.424321924279E-01  1.531933544353E-01  2.999970596574E-01
      9 T   6 C     2.276799714871E-01  3.407632511531E-01  2.999191551426E-01
     10 T   6 C     2.094517805960E-01 -1.980667284610E-01  3.000035279253E-01
     11 T   6 C    -4.366872191784E-01  1.112264736308E-01  3.000093099059E-01
     12 T   6 C    -4.241379322850E-01  4.509877045523E-01  3.000176002936E-01
     13 T   6 C    -4.729549602413E-01 -2.435195940200E-01  2.999995029550E-01
     14 T   6 C    -1.020124879120E-01  4.500836416561E-01  3.000087483673E-01
     15 T   6 C    -1.152218400464E-01 -1.981784288124E-01  3.000100763933E-01

 T = ATOM BELONGING TO THE ASYMMETRIC UNIT
 INFORMATION **** fort.34 **** GEOMETRY OUTPUT FILE

 DIRECT LATTICE VECTORS CARTESIAN COMPONENTS (ANGSTROM)
          X                    Y                    Z
   0.370158621205E+01  -0.641133538787E+01   0.000000000000E+00
   0.370158621205E+01   0.641133538787E+01   0.000000000000E+00
   0.000000000000E+00   0.000000000000E+00   0.868503800000E+01


 CARTESIAN COORDINATES - PRIMITIVE CELL
 *******************************************************************************
 *      ATOM          X(ANGSTROM)         Y(ANGSTROM)         Z(ANGSTROM)
 *******************************************************************************
    1     6 C     3.836062956449E+00  5.216949567198E+00  2.605482217139E+00
    2     6 C     2.576672217573E+00 -1.507383519455E+00  2.605707074918E+00
    3     6 C     3.547203690631E+00  6.302539016149E-01  2.605380255216E+00
    4     6 C     4.824454791370E+00  2.923335472708E+00  2.605565611556E+00
    5     6 C     3.775518709762E+00 -3.572912076806E+00  2.605488179486E+00
    6     6 C     5.045558157315E+00 -1.427071310713E+00  2.605602213277E+00
    7     6 C     6.025582079979E+00  8.417226291480E-01  2.605658392878E+00
    8     6 C     1.464442069403E+00 -5.721401199941E-01  2.605485863013E+00
    9     6 C     2.104141595257E+00  7.250148326984E-01  2.604809259341E+00
   10     6 C     3.743728964055E+00  3.798597549539E+00  2.605542040165E+00
   11     6 C     2.496865203767E+00 -2.898476939662E+00  2.605592256886E+00
   12     6 C     3.800972958870E+00 -8.006114235823E-01  2.605664259219E+00
   13     6 C     4.751080092760E+00  1.470987082683E+00  2.605507083145E+00
   14     6 C     4.990001595560E+00 -2.871661934862E+00  2.605587379903E+00
   15     6 C     6.243094310038E+00 -5.318625132117E-01  2.605598913858E+00

 ****    1 SYMMOPS - TRANSLATORS IN FRACTIONAL UNITS
 **** MATRICES AND TRANSLATORS IN THE CRYSTALLOGRAPHIC REFERENCE FRAME
   V INV                    ROTATION MATRICES                   TRANSLATORS
   1   1  1.00  0.00  0.00  0.00  1.00  0.00  0.00  0.00  1.00  0.00  0.00  0.00
 TTTTTTTTTTTTTTTTTTTTTTTTTTTTTT END         TELAPSE     1003.34 TCPU      994.60
 EEEEEEEEEE TERMINATION  DATE 31 10 2022 TIME 19:57:44.5
NODE    0 CPU TIME =       994.598
    TOTAL CPU TIME =    127762.828
Note: The following floating-point exceptions are signalling: IEEE_UNDERFLOW_FLAG IEEE_DENORMAL
Note: The following floating-point exceptions are signalling: IEEE_UNDERFLOW_FLAG IEEE_DENORMAL
Note: The following floating-point exceptions are signalling: IEEE_UNDERFLOW_FLAG IEEE_DENORMAL
Note: The following floating-point exceptions are signalling: IEEE_UNDERFLOW_FLAG IEEE_DENORMAL
Note: The following floating-point exceptions are signalling: IEEE_UNDERFLOW_FLAG IEEE_DENORMAL
Note: The following floating-point exceptions are signalling: IEEE_UNDERFLOW_FLAG IEEE_DENORMAL
Note: The following floating-point exceptions are signalling: IEEE_UNDERFLOW_FLAG IEEE_DENORMAL
Note: The following floating-point exceptions are signalling: IEEE_UNDERFLOW_FLAG IEEE_DENORMAL
Note: The following floating-point exceptions are signalling: IEEE_UNDERFLOW_FLAG IEEE_DENORMAL
Note: The following floating-point exceptions are signalling: IEEE_UNDERFLOW_FLAG IEEE_DENORMAL
Note: The following floating-point exceptions are signalling: IEEE_UNDERFLOW_FLAG IEEE_DENORMAL
Note: The following floating-point exceptions are signalling: IEEE_UNDERFLOW_FLAG IEEE_DENORMAL
Note: The following floating-point exceptions are signalling: IEEE_UNDERFLOW_FLAG IEEE_DENORMAL
Note: The following floating-point exceptions are signalling: IEEE_UNDERFLOW_FLAG IEEE_DENORMAL
Note: The following floating-point exceptions are signalling: IEEE_UNDERFLOW_FLAG IEEE_DENORMAL
Note: The following floating-point exceptions are signalling: IEEE_UNDERFLOW_FLAG IEEE_DENORMAL
Note: The following floating-point exceptions are signalling: IEEE_UNDERFLOW_FLAG IEEE_DENORMAL
Note: The following floating-point exceptions are signalling: IEEE_UNDERFLOW_FLAG IEEE_DENORMAL
Note: The following floating-point exceptions are signalling: IEEE_UNDERFLOW_FLAG IEEE_DENORMAL
Note: The following floating-point exceptions are signalling: IEEE_UNDERFLOW_FLAG IEEE_DENORMAL
Note: The following floating-point exceptions are signalling: IEEE_UNDERFLOW_FLAG IEEE_DENORMAL
Note: The following floating-point exceptions are signalling: IEEE_UNDERFLOW_FLAG IEEE_DENORMAL
Note: The following floating-point exceptions are signalling: IEEE_UNDERFLOW_FLAG IEEE_DENORMAL
Note: The following floating-point exceptions are signalling: IEEE_UNDERFLOW_FLAG IEEE_DENORMAL
Note: The following floating-point exceptions are signalling: IEEE_UNDERFLOW_FLAG IEEE_DENORMAL
Note: The following floating-point exceptions are signalling: IEEE_UNDERFLOW_FLAG IEEE_DENORMAL
Note: The following floating-point exceptions are signalling: IEEE_UNDERFLOW_FLAG IEEE_DENORMAL
Note: The following floating-point exceptions are signalling: IEEE_UNDERFLOW_FLAG IEEE_DENORMAL
Note: The following floating-point exceptions are signalling: IEEE_UNDERFLOW_FLAG IEEE_DENORMAL
Note: The following floating-point exceptions are signalling: IEEE_UNDERFLOW_FLAG IEEE_DENORMAL
Note: The following floating-point exceptions are signalling: IEEE_UNDERFLOW_FLAG IEEE_DENORMAL
Note: The following floating-point exceptions are signalling: IEEE_UNDERFLOW_FLAG IEEE_DENORMAL
Note: The following floating-point exceptions are signalling: IEEE_UNDERFLOW_FLAG IEEE_DENORMAL
Note: The following floating-point exceptions are signalling: IEEE_UNDERFLOW_FLAG IEEE_DENORMAL
Note: The following floating-point exceptions are signalling: IEEE_UNDERFLOW_FLAG IEEE_DENORMAL
Note: The following floating-point exceptions are signalling: IEEE_UNDERFLOW_FLAG IEEE_DENORMAL
Note: The following floating-point exceptions are signalling: IEEE_UNDERFLOW_FLAG IEEE_DENORMAL
Note: The following floating-point exceptions are signalling: IEEE_UNDERFLOW_FLAG IEEE_DENORMAL
Note: The following floating-point exceptions are signalling: IEEE_UNDERFLOW_FLAG IEEE_DENORMAL
Note: The following floating-point exceptions are signalling: IEEE_UNDERFLOW_FLAG IEEE_DENORMAL
Note: The following floating-point exceptions are signalling: IEEE_UNDERFLOW_FLAG IEEE_DENORMAL
Note: The following floating-point exceptions are signalling: IEEE_UNDERFLOW_FLAG IEEE_DENORMAL
Note: The following floating-point exceptions are signalling: IEEE_UNDERFLOW_FLAG IEEE_DENORMAL
Note: The following floating-point exceptions are signalling: IEEE_UNDERFLOW_FLAG IEEE_DENORMAL
Note: The following floating-point exceptions are signalling: IEEE_UNDERFLOW_FLAG IEEE_DENORMAL
Note: The following floating-point exceptions are signalling: IEEE_UNDERFLOW_FLAG IEEE_DENORMAL
Note: The following floating-point exceptions are signalling: IEEE_UNDERFLOW_FLAG IEEE_DENORMAL
Note: The following floating-point exceptions are signalling: IEEE_UNDERFLOW_FLAG IEEE_DENORMAL
Note: The following floating-point exceptions are signalling: IEEE_UNDERFLOW_FLAG IEEE_DENORMAL
Note: The following floating-point exceptions are signalling: IEEE_UNDERFLOW_FLAG IEEE_DENORMAL
Note: The following floating-point exceptions are signalling: IEEE_UNDERFLOW_FLAG IEEE_DENORMAL
Note: The following floating-point exceptions are signalling: IEEE_UNDERFLOW_FLAG IEEE_DENORMAL
Note: The following floating-point exceptions are signalling: IEEE_UNDERFLOW_FLAG IEEE_DENORMAL
Note: The following floating-point exceptions are signalling: IEEE_UNDERFLOW_FLAG IEEE_DENORMAL
Note: The following floating-point exceptions are signalling: IEEE_UNDERFLOW_FLAG IEEE_DENORMAL
Note: The following floating-point exceptions are signalling: IEEE_UNDERFLOW_FLAG IEEE_DENORMAL
Note: The following floating-point exceptions are signalling: IEEE_UNDERFLOW_FLAG IEEE_DENORMAL
Note: The following floating-point exceptions are signalling: IEEE_UNDERFLOW_FLAG IEEE_DENORMAL
Note: The following floating-point exceptions are signalling: IEEE_UNDERFLOW_FLAG IEEE_DENORMAL
Note: The following floating-point exceptions are signalling: IEEE_UNDERFLOW_FLAG IEEE_DENORMAL
Note: The following floating-point exceptions are signalling: IEEE_UNDERFLOW_FLAG IEEE_DENORMAL
Note: The following floating-point exceptions are signalling: IEEE_UNDERFLOW_FLAG IEEE_DENORMAL
Note: The following floating-point exceptions are signalling: IEEE_UNDERFLOW_FLAG IEEE_DENORMAL
Note: The following floating-point exceptions are signalling: IEEE_UNDERFLOW_FLAG IEEE_DENORMAL
Note: The following floating-point exceptions are signalling: IEEE_UNDERFLOW_FLAG IEEE_DENORMAL
Note: The following floating-point exceptions are signalling: IEEE_UNDERFLOW_FLAG IEEE_DENORMAL
Note: The following floating-point exceptions are signalling: IEEE_UNDERFLOW_FLAG IEEE_DENORMAL
Note: The following floating-point exceptions are signalling: IEEE_UNDERFLOW_FLAG IEEE_DENORMAL
Note: The following floating-point exceptions are signalling: IEEE_UNDERFLOW_FLAG IEEE_DENORMAL
Note: The following floating-point exceptions are signalling: IEEE_UNDERFLOW_FLAG IEEE_DENORMAL
Note: The following floating-point exceptions are signalling: IEEE_UNDERFLOW_FLAG IEEE_DENORMAL
Note: The following floating-point exceptions are signalling: IEEE_UNDERFLOW_FLAG IEEE_DENORMAL
Note: The following floating-point exceptions are signalling: IEEE_UNDERFLOW_FLAG IEEE_DENORMAL
Note: The following floating-point exceptions are signalling: IEEE_UNDERFLOW_FLAG IEEE_DENORMAL
Note: The following floating-point exceptions are signalling: IEEE_UNDERFLOW_FLAG IEEE_DENORMAL
Note: The following floating-point exceptions are signalling: IEEE_UNDERFLOW_FLAG IEEE_DENORMAL
Note: The following floating-point exceptions are signalling: IEEE_UNDERFLOW_FLAG IEEE_DENORMAL
Note: The following floating-point exceptions are signalling: IEEE_UNDERFLOW_FLAG IEEE_DENORMAL
Note: The following floating-point exceptions are signalling: IEEE_UNDERFLOW_FLAG IEEE_DENORMAL
Note: The following floating-point exceptions are signalling: IEEE_UNDERFLOW_FLAG IEEE_DENORMAL
Note: The following floating-point exceptions are signalling: IEEE_UNDERFLOW_FLAG IEEE_DENORMAL
Note: The following floating-point exceptions are signalling: IEEE_UNDERFLOW_FLAG IEEE_DENORMAL
Note: The following floating-point exceptions are signalling: IEEE_UNDERFLOW_FLAG IEEE_DENORMAL
Note: The following floating-point exceptions are signalling: IEEE_UNDERFLOW_FLAG IEEE_DENORMAL
Note: The following floating-point exceptions are signalling: IEEE_UNDERFLOW_FLAG IEEE_DENORMAL
Note: The following floating-point exceptions are signalling: IEEE_UNDERFLOW_FLAG IEEE_DENORMAL
Note: The following floating-point exceptions are signalling: IEEE_UNDERFLOW_FLAG IEEE_DENORMAL
Note: The following floating-point exceptions are signalling: IEEE_UNDERFLOW_FLAG IEEE_DENORMAL
Note: The following floating-point exceptions are signalling: IEEE_UNDERFLOW_FLAG IEEE_DENORMAL
Note: The following floating-point exceptions are signalling: IEEE_UNDERFLOW_FLAG IEEE_DENORMAL
Note: The following floating-point exceptions are signalling: IEEE_UNDERFLOW_FLAG IEEE_DENORMAL
Note: The following floating-point exceptions are signalling: IEEE_UNDERFLOW_FLAG IEEE_DENORMAL
Note: The following floating-point exceptions are signalling: IEEE_UNDERFLOW_FLAG IEEE_DENORMAL
Note: The following floating-point exceptions are signalling: IEEE_UNDERFLOW_FLAG IEEE_DENORMAL
Note: The following floating-point exceptions are signalling: IEEE_UNDERFLOW_FLAG IEEE_DENORMAL
Note: The following floating-point exceptions are signalling: IEEE_UNDERFLOW_FLAG IEEE_DENORMAL
Note: The following floating-point exceptions are signalling: IEEE_UNDERFLOW_FLAG IEEE_DENORMAL
Note: The following floating-point exceptions are signalling: IEEE_UNDERFLOW_FLAG IEEE_DENORMAL
Note: The following floating-point exceptions are signalling: IEEE_UNDERFLOW_FLAG IEEE_DENORMAL
Note: The following floating-point exceptions are signalling: IEEE_UNDERFLOW_FLAG IEEE_DENORMAL
Note: The following floating-point exceptions are signalling: IEEE_UNDERFLOW_FLAG IEEE_DENORMAL
Note: The following floating-point exceptions are signalling: IEEE_UNDERFLOW_FLAG IEEE_DENORMAL
Note: The following floating-point exceptions are signalling: IEEE_UNDERFLOW_FLAG IEEE_DENORMAL
Note: The following floating-point exceptions are signalling: IEEE_UNDERFLOW_FLAG IEEE_DENORMAL
Note: The following floating-point exceptions are signalling: IEEE_UNDERFLOW_FLAG IEEE_DENORMAL
Note: The following floating-point exceptions are signalling: IEEE_UNDERFLOW_FLAG IEEE_DENORMAL
Note: The following floating-point exceptions are signalling: IEEE_UNDERFLOW_FLAG IEEE_DENORMAL
Note: The following floating-point exceptions are signalling: IEEE_UNDERFLOW_FLAG IEEE_DENORMAL
Note: The following floating-point exceptions are signalling: IEEE_UNDERFLOW_FLAG IEEE_DENORMAL
Note: The following floating-point exceptions are signalling: IEEE_UNDERFLOW_FLAG IEEE_DENORMAL
Note: The following floating-point exceptions are signalling: IEEE_UNDERFLOW_FLAG IEEE_DENORMAL
Note: The following floating-point exceptions are signalling: IEEE_UNDERFLOW_FLAG IEEE_DENORMAL
Note: The following floating-point exceptions are signalling: IEEE_UNDERFLOW_FLAG IEEE_DENORMAL
Note: The following floating-point exceptions are signalling: IEEE_UNDERFLOW_FLAG IEEE_DENORMAL
Note: The following floating-point exceptions are signalling: IEEE_UNDERFLOW_FLAG IEEE_DENORMAL
Note: The following floating-point exceptions are signalling: IEEE_UNDERFLOW_FLAG IEEE_DENORMAL
Note: The following floating-point exceptions are signalling: IEEE_UNDERFLOW_FLAG IEEE_DENORMAL
Note: The following floating-point exceptions are signalling: IEEE_UNDERFLOW_FLAG IEEE_DENORMAL
Note: The following floating-point exceptions are signalling: IEEE_UNDERFLOW_FLAG IEEE_DENORMAL
Note: The following floating-point exceptions are signalling: IEEE_UNDERFLOW_FLAG IEEE_DENORMAL
Note: The following floating-point exceptions are signalling: IEEE_UNDERFLOW_FLAG IEEE_DENORMAL
Note: The following floating-point exceptions are signalling: IEEE_UNDERFLOW_FLAG IEEE_DENORMAL
Note: The following floating-point exceptions are signalling: IEEE_UNDERFLOW_FLAG IEEE_DENORMAL
Note: The following floating-point exceptions are signalling: IEEE_UNDERFLOW_FLAG IEEE_DENORMAL
Note: The following floating-point exceptions are signalling: IEEE_UNDERFLOW_FLAG IEEE_DENORMAL
Note: The following floating-point exceptions are signalling: IEEE_UNDERFLOW_FLAG IEEE_DENORMAL
Note: The following floating-point exceptions are signalling: IEEE_UNDERFLOW_FLAG IEEE_DENORMAL
Note: The following floating-point exceptions are signalling: IEEE_UNDERFLOW_FLAG IEEE_DENORMAL
end_date Mon Oct 31 19:57:44 GMT 2022
 
TEMPORARY          SAVED (in /mnt/lustre/a2fs-work2/work/e05/e05/bcamino/quantum_computing/test_model/optgeom)
fort.34            graphene_3v_C.gui 1492     Oct 31 19:57
fort.33            graphene_3v_C.xyz 38663    Oct 31 19:57
fort.9             graphene_3v_C.f9  1550048  Oct 31 19:57
fort.98            graphene_3v_C.f98 4034068  Oct 31 19:57
SCFOUT.LOG         graphene_3v_C.SCFLOG833245   Oct 31 19:57
OPTINFO.DAT        graphene_3v_C.OPTINFO11906031 Oct 31 19:57
HESSOPT.DAT        graphene_3v_C.HESSOPT37485    Oct 31 19:57
opta001            opta002            
Disk usage:<du -m>
429	/mnt/lustre/a2fs-work2/work/e05/e05/bcamino/quantum_computing/test_model/optgeom/tmp_graphene_3v_C_
</du -m>
Filesystem                                          1K-blocks          Used     Available Use% Mounted on
10.253.102.2@o2ib1:10.253.102.3@o2ib1:/cls01097 3582178503216 1813108828028 1732873785516  52% /mnt/lustre/a2fs-work2
10.253.102.2@o2ib1:10.253.102.3@o2ib1:/cls01097 3582178503216 1813108828028 1732873785516  52% /mnt/lustre/a2fs-work2
