date:                Mon Oct 31 22:22:40 GMT 2022
hostname:            nid005741
system:              Linux nid005741 4.12.14-197.78_9.1.64-cray_shasta_c #1 SMP Wed Aug 25 14:56:40 UTC 2021 (4e2a900) x86_64 x86_64 x86_64 GNU/Linux
user:                bcamino
input:               /mnt/lustre/a2fs-work2/work/e05/e05/bcamino/quantum_computing/test_model/optgeom/graphene_3v_I.d12
output:              /mnt/lustre/a2fs-work2/work/e05/e05/bcamino/quantum_computing/test_model/optgeom/graphene_3v_I.out
executable script:   /work/e05/e05/bcamino/runCRYSTAL/Pcry_slurm
executable:          Pcrystal
Command:             srun --hint=nomultithread --distribution=block:block Pcrystal
Slurm JobID:         
temporary directory: /mnt/lustre/a2fs-work2/work/e05/e05/bcamino/quantum_computing/test_model/optgeom/tmp_graphene_3v_I_      
input data /mnt/lustre/a2fs-work2/work/e05/e05/bcamino/quantum_computing/test_model/optgeom/graphene_3v_I.d12
Final
EXTERNAL
SYMMREMO
OPTGEOM
ATOMONLY
END
END
6 8
0 0 6 2.0 1.0
  13575.349682      0.00022245814352
  2035.2333680      0.00172327382520
  463.22562359      0.00892557153140
  131.20019598      0.03572798450200
  42.853015891      0.11076259931000
  15.584185766      0.24295627626000
0 0 2 2.0 1.0
  6.2067138508      0.41440263448000
  2.5764896527      0.23744968655000
0 0 1 0.0 1.0
  0.4941102000      1.00000000000000
0 0 1 0.0 1.0
  0.1644071000      1.00000000000000
0 2 4 2.0 1.0
  34.697232244      0.00533336578050
  7.9582622826      0.03586410909200
  2.3780826883      0.14215873329000
  0.8143320818      0.34270471845000
0 2 1 0.0 1.0
  0.5662417100      1.00000000000000
0 2 1 0.0 1.0
  0.1973545000      1.00000000000000
0 3 1 0.0 1.0
  0.5791584200      1.00000000000000
99 0
ENDBS
DFT
PBE  
ENDDFT
TOLINTEG
8 8 8 8 16
SCFDIR
SHRINK
8 16  
MAXCYCLE
200
TOLDEE
9 
ENDSCF
input data /mnt/lustre/a2fs-work2/work/e05/e05/bcamino/quantum_computing/test_model/optgeom/graphene_3v_I.gui
         128 PROCESSORS WORKING

         
 *******************************************************************************
 *                                                                             *
 *                               CRYSTAL17                                     *
 *                      public : 1.0.2 - March 1st, 2018 STFC/Archer2 build    *
 *                       HTTP://WWW.CRYSTAL.UNITO.IT                           *
 *                                                                             *
 *                              MAIN AUTHORS                                   *
 *                                                                             *
 *  R. DOVESI(1,11), V.R. SAUNDERS(2), C. ROETTI(1,11), R. ORLANDO(1,11),      *
 *  C.M. ZICOVICH-WILSON(1,3), F. PASCALE(4), B. CIVALLERI(1,11),              *
 *  K. DOLL(5), N.M. HARRISON(2,6), I.J. BUSH(7), Ph. D'ARCO(8),               *
 *  M. LLUNELL(9), M. CAUSA'(10), Y. NOEL(8), L. MASCHIO(1,11), A. ERBA(1,11)  *
 *  M. RE'RAT(14), S. CASASSA(1,11)                                            *
 *                                                                             *
 *        CONTRIBUTIONS TO THE CODE HAVE ALSO BEEN GIVEN BY                    *
 *                                                                             *
 *  M. FERRABONE(1,11), M. DE LA PIERRE(1,11), M. FERRERO(1,11),               *
 *  J. BAIMA(1,11), E. ALBANESE(1,11), M.F. PEINTINGER(12), R. BAST(13),       *
 *  B. KIRTMAN(15), V. LACIVITA(1,11), R. DEMICHELIS(1,16)                     *
 *  G. BRANDEBURG(17), S. SALUSTRO(1,11), G. SANSONE(1,11)                     *
 *  M.T. RUGGIERO(18)                                                          *
 *                                                                             *
 * (1) THEORETICAL CHEMISTRY GROUP - UNIVERSITA' DI TORINO - TORINO (ITALY)    *
 * (2) COMPUTATIONAL SCIENCE & ENGINEERING DEPARTMENT - STFC DARESBURY (UK)    *
 * (3) UNIVERSIDAD AUTONOMA DEL ESTADO DE MORELOS - CUERNAVACA (MEXICO)        *
 * (4) UNIVERSITE' DE LORRAINE - NANCY (FRANCE)                                *
 * (5) UNIVERSITAET STUTTGART- STUTTGART (GERMANY)                             *
 * (6) IMPERIAL COLLEGE - LONDON (UK)                                          *
 * (7) OXFORD E-RESEARCH CENTRE - OXFORD (UK)                                  *
 * (8) UPMC - SORBONNE UNIVERSITES - PARIS (FRANCE)                            *
 * (9) UNIVERSIDAD DE BARCELONA - BARCELONA (SPAIN)                            *
 *(10) UNIVERSITA' DI NAPOLI "FEDERICO II" - NAPOLI (ITALY)                    *
 *(11) NIS - NANOSTRUCTURED INTERFACES AND SURFACES - TORINO (ITALY)           *
 *(12) MPI FUER CHEMISCHE ENERGIEKONVERSION - MUELHEIM AN DER RUHR (GERMANY)   *
 *(13) UNIVERSITY OF TROMSO - TROMSO (NORWAY)                                  *
 *(14) UNIVERSITE' DE PAU ET DES PAYS DE L'ADOUR - PAU (FRANCE)                *
 *(15) UNIVERSITY OF CALIFORNIA SANTA BARBARA - SANTA BARBARA (USA)            *
 *(16) CURTIN UNIVERSITY - PERTH (AUSTRALIA)                                   *
 *(17) UNIVERSITY COLLEGE LONDON - LONDON (UK)                                 *
 *(18) CAMBRIDGE UNIVERSITY - CAMBRIDGE (UK)                                   *
 *                                                                             *
 *******************************************************************************
 EEEEEEEEEE STARTING  DATE 31 10 2022 TIME 22:22:43.4
 Final                                                                           

 GEOMETRY INPUT FROM EXTERNAL FILE (FORTRAN UNIT 34)
 3D - CRYSTAL 

 *******************************************************************************
 LATTICE PARAMETERS  (ANGSTROMS AND DEGREES) - PRIMITIVE CELL
       A          B          C        ALPHA      BETA     GAMMA        VOLUME
    7.40317    7.40317    8.68504    90.00000  90.00000 120.00000    412.228566
 INFORMATION **** CHKGRP **** SPGR WITH NO INVERSION

 NUMBER OF IRREDUCIBLE ATOMS IN THE CELL:   15

 CARTESIAN COORDINATES (ANGSTROM) - IRREDUCIBLE ATOMS AND SYMMETRY RELATED

 AT.IRR.  AT  AT.N.          X                   Y                   Z
     1     1     6    3.701586212049E+00  4.986594190562E+00  2.605511400000E+00
     2     2     6    2.467724141366E+00 -1.424741197304E+00  2.605511400000E+00
     3     3     6    3.701586212049E+00  7.123705986520E-01  2.605511400000E+00
     4     4     6    4.935448282733E+00  2.849482394607E+00  2.605511400000E+00
     5     5     6    3.701586212049E+00 -3.561852993259E+00  2.605511400000E+00
     6     6     6    4.935448282733E+00 -1.424741197304E+00  2.605511400000E+00
     7     7     6    6.169310353416E+00  7.123705986520E-01  2.605511400000E+00
     8     8     6    1.233862070683E+00 -7.123705986520E-01  2.605511400000E+00
     9     9     6    2.467724141366E+00  1.424741197304E+00  2.605511400000E+00
    10    10     6    3.701586212049E+00  3.561852993259E+00  2.605511400000E+00
    11    11     6    3.701586212049E+00 -7.123705986520E-01  2.605511400000E+00
    12    12     6    4.935448282733E+00  1.424741197304E+00  2.605511400000E+00
    13    13     6    3.701586212049E+00 -4.986594190562E+00  2.605511400000E+00
    14    14     6    4.935448282733E+00 -2.849482394607E+00  2.605511400000E+00
    15    15     6    6.169310353416E+00 -7.123705986520E-01  2.605511400000E+00

 SPACE  GROUP  N.                     :    1
 NUMBER OF SYMMETRY OPERATORS         :    1
 *******************************************************************************
 LATTICE PARAMETERS (ANGSTROMS AND DEGREES) - BOHR = 0.5291772083 ANGSTROM
 PRIMITIVE CELL - CENTRING CODE 1/0 VOLUME=   412.228566 - DENSITY  0.725 g/cm^3
         A              B              C           ALPHA      BETA       GAMMA 
     7.40317242     7.40317242     8.68503800    90.000000  90.000000 120.000000
 *******************************************************************************
 ATOMS IN THE ASYMMETRIC UNIT   15 - ATOMS IN THE UNIT CELL:   15
     ATOM                 X/A                 Y/B                 Z/C    
 *******************************************************************************
      1 T   6 C     1.111111111111E-01 -1.111111111111E-01  3.000000000000E-01
      2 T   6 C     4.444444444445E-01  2.222222222222E-01  3.000000000000E-01
      3 T   6 C     4.444444444444E-01 -4.444444444444E-01  3.000000000000E-01
      4 T   6 C     4.444444444446E-01 -1.111111111110E-01  3.000000000000E-01
      5 T   6 C    -2.222222222222E-01  2.222222222222E-01  3.000000000000E-01
      6 T   6 C    -2.222222222221E-01 -4.444444444443E-01  3.000000000000E-01
      7 T   6 C    -2.222222222221E-01 -1.111111111110E-01  3.000000000000E-01
      8 T   6 C     2.222222222222E-01  1.111111111111E-01  3.000000000000E-01
      9 T   6 C     2.222222222222E-01  4.444444444445E-01  3.000000000000E-01
     10 T   6 C     2.222222222222E-01 -2.222222222222E-01  3.000000000000E-01
     11 T   6 C    -4.444444444444E-01  4.444444444444E-01  3.000000000000E-01
     12 T   6 C    -4.444444444443E-01 -2.222222222221E-01  3.000000000000E-01
     13 T   6 C    -1.111111111111E-01  1.111111111111E-01  3.000000000000E-01
     14 T   6 C    -1.111111111110E-01  4.444444444446E-01  3.000000000000E-01
     15 T   6 C    -1.111111111110E-01 -2.222222222221E-01  3.000000000000E-01

 T = ATOM BELONGING TO THE ASYMMETRIC UNIT
 *******************************************************************************
 * GEOMETRY EDITING - INPUT COORDINATES ARE GIVEN IN ANGSTROM         
 *******************************************************************************

 USE OF SYMMETRY WILL BE SUBSEQUENTLY SUSPENDED
 INFORMATION **** NEW DEFAULT **** FINALRUN 4 FOR GEOMETRY OPTIMIZATIONS
 INFORMATION **** NEW DEFAULT **** OPTGEOM OPTIMIZES BOTH ATOMIC COORDINATES AND CELL PARAMETERS
 INFORMATION **** NEW DEFAULT **** TOL. ON ATOMIC DISP TO REDEFINE REF. GEOMETRY: 0.8 Angs
 INFORMATION **** NEW DEFAULT **** N POINTS TO REDEFINE REF. GEOMETRY: N OF OPT DEGS OF FREEDOM
 INFORMATION **** NEW DEFAULT **** TOL. ON ENERGY TO REDEFINE REF. GEOMETRY: 10**-3*(5*N. ATOMS)
 INFORMATION **** ATOMONLY **** ONLY ATOMIC COORDINATES ARE OPTIMIZED

 IMPORTANT INFORMATION:
 THE COORDINATE SYSTEM ADOPTED IN THE OPTIMIZATION IS NOT IN
 GENERAL HOMOGENEOUS UNITS. FOR THIS REASON THE GRADIENT AND 
 HESSIAN MATRIX IN TERMS OF THIS SYSTEM ARE GIVEN WITHOUT
 UNITS. FOR MORE DETAILS SEE THE MANUAL.

 *******************************************************************************
 ATOMIC POSITIONS OPTIMIZATION CONTROL

 INITIAL TRUST RADIUS         0.50000 MAXIMUM TRUST RADIUS               4.00000
 MAXIMUM GRADIENT COMPONENT   0.00045 MAXIMUM DISPLACEMENT COMPONENT     0.00180
 R.M.S. OF GRADIENT COMPONENT 0.00030 R.M.S. OF DISPLACEMENT COMPONENTS  0.00120
 THRESHOLD ON ENERGY CHANGE 0.100E-06 EXTRAPOLATING POLYNOMIAL ORDER           2
 MAXIMUM ALLOWED NUMBER OF STEPS   -1 SORTING OF ENERGY POINTS:               NO
 ANALYTICAL  GRADIENT                 HESSIAN UPDATING                      BFGS
 STEP SIZE NUMERICAL GRADIENT 0.00100
 INITIAL HESSIAN MATRIX: SCHLEGEL MODEL 2
 *******************************************************************************


 GCALCO - MAX INDICES DIRECT LATTICE VECTOR    16    16    12
 NO.OF VECTORS CREATED 6999 STARS  379 RMAX   166.99060 BOHR

 GEOMETRY FOR WAVE FUNCTION - DIMENSIONALITY OF THE SYSTEM    3
 (NON PERIODIC DIRECTION: LATTICE PARAMETER FORMALLY SET TO 500)
 *******************************************************************************
 LATTICE PARAMETERS (ANGSTROMS AND DEGREES) - BOHR = 0.5291772083 ANGSTROM
 PRIMITIVE CELL - CENTRING CODE 1/0 VOLUME=   412.228566 - DENSITY  0.725 g/cm^3
         A              B              C           ALPHA      BETA       GAMMA 
     7.40317242     7.40317242     8.68503800    90.000000  90.000000 120.000000
 *******************************************************************************
 ATOMS IN THE ASYMMETRIC UNIT   15 - ATOMS IN THE UNIT CELL:   15
     ATOM                 X/A                 Y/B                 Z/C    
 *******************************************************************************
      1 T   6 C     1.111111111111E-01 -1.111111111111E-01  3.000000000000E-01
      2 T   6 C     4.444444444445E-01  2.222222222222E-01  3.000000000000E-01
      3 T   6 C     4.444444444444E-01 -4.444444444444E-01  3.000000000000E-01
      4 T   6 C     4.444444444446E-01 -1.111111111110E-01  3.000000000000E-01
      5 T   6 C    -2.222222222222E-01  2.222222222222E-01  3.000000000000E-01
      6 T   6 C    -2.222222222221E-01 -4.444444444443E-01  3.000000000000E-01
      7 T   6 C    -2.222222222221E-01 -1.111111111110E-01  3.000000000000E-01
      8 T   6 C     2.222222222222E-01  1.111111111111E-01  3.000000000000E-01
      9 T   6 C     2.222222222222E-01  4.444444444445E-01  3.000000000000E-01
     10 T   6 C     2.222222222222E-01 -2.222222222222E-01  3.000000000000E-01
     11 T   6 C    -4.444444444444E-01  4.444444444444E-01  3.000000000000E-01
     12 T   6 C    -4.444444444443E-01 -2.222222222221E-01  3.000000000000E-01
     13 T   6 C    -1.111111111111E-01  1.111111111111E-01  3.000000000000E-01
     14 T   6 C    -1.111111111110E-01  4.444444444446E-01  3.000000000000E-01
     15 T   6 C    -1.111111111110E-01 -2.222222222221E-01  3.000000000000E-01

 T = ATOM BELONGING TO THE ASYMMETRIC UNIT

 ****    1 SYMMOPS - TRANSLATORS IN FRACTIONAL UNITS
 **** MATRICES AND TRANSLATORS IN THE CRYSTALLOGRAPHIC REFERENCE FRAME
   V INV                    ROTATION MATRICES                   TRANSLATORS
   1   1  1.00  0.00  0.00  0.00  1.00  0.00  0.00  0.00  1.00  0.00  0.00  0.00

 DIRECT LATTICE VECTORS CARTESIAN COMPONENTS (ANGSTROM)
          X                    Y                    Z
   0.370158621205E+01  -0.641133538787E+01   0.000000000000E+00
   0.370158621205E+01   0.641133538787E+01   0.000000000000E+00
   0.000000000000E+00   0.000000000000E+00   0.868503800000E+01


 CARTESIAN COORDINATES - PRIMITIVE CELL
 *******************************************************************************
 *      ATOM          X(ANGSTROM)         Y(ANGSTROM)         Z(ANGSTROM)
 *******************************************************************************
    1     6 C     3.701586212049E+00  4.986594190562E+00  2.605511400000E+00
    2     6 C     2.467724141366E+00 -1.424741197304E+00  2.605511400000E+00
    3     6 C     3.701586212049E+00  7.123705986520E-01  2.605511400000E+00
    4     6 C     4.935448282733E+00  2.849482394607E+00  2.605511400000E+00
    5     6 C     3.701586212049E+00 -3.561852993259E+00  2.605511400000E+00
    6     6 C     4.935448282733E+00 -1.424741197304E+00  2.605511400000E+00
    7     6 C     6.169310353416E+00  7.123705986520E-01  2.605511400000E+00
    8     6 C     1.233862070683E+00 -7.123705986520E-01  2.605511400000E+00
    9     6 C     2.467724141366E+00  1.424741197304E+00  2.605511400000E+00
   10     6 C     3.701586212049E+00  3.561852993259E+00  2.605511400000E+00
   11     6 C     3.701586212049E+00 -7.123705986520E-01  2.605511400000E+00
   12     6 C     4.935448282733E+00  1.424741197304E+00  2.605511400000E+00
   13     6 C     3.701586212049E+00 -4.986594190562E+00  2.605511400000E+00
   14     6 C     4.935448282733E+00 -2.849482394607E+00  2.605511400000E+00
   15     6 C     6.169310353416E+00 -7.123705986520E-01  2.605511400000E+00

 *******************************************************************************
 LOCAL ATOMIC FUNCTIONS BASIS SET
 *******************************************************************************
   ATOM   X(AU)   Y(AU)   Z(AU)  N. TYPE  EXPONENT  S COEF   P COEF   D/F/G COEF
 *******************************************************************************
   1 C    6.995   9.423   4.924
                                  1 S  
                                         1.358E+04 2.225E-04 0.000E+00 0.000E+00
                                         2.035E+03 1.723E-03 0.000E+00 0.000E+00
                                         4.632E+02 8.926E-03 0.000E+00 0.000E+00
                                         1.312E+02 3.573E-02 0.000E+00 0.000E+00
                                         4.285E+01 1.108E-01 0.000E+00 0.000E+00
                                         1.558E+01 2.430E-01 0.000E+00 0.000E+00
                                  2 S  
                                         6.207E+00 4.144E-01 0.000E+00 0.000E+00
                                         2.576E+00 2.374E-01 0.000E+00 0.000E+00
                                  3 S  
                                         4.941E-01 1.000E+00 0.000E+00 0.000E+00
                                  4 S  
                                         1.644E-01 1.000E+00 0.000E+00 0.000E+00
                           5-     7 P  
                                         3.470E+01 0.000E+00 5.333E-03 0.000E+00
                                         7.958E+00 0.000E+00 3.586E-02 0.000E+00
                                         2.378E+00 0.000E+00 1.422E-01 0.000E+00
                                         8.143E-01 0.000E+00 3.427E-01 0.000E+00
                           8-    10 P  
                                         5.662E-01 0.000E+00 1.000E+00 0.000E+00
                          11-    13 P  
                                         1.974E-01 0.000E+00 1.000E+00 0.000E+00
                          14-    18 D  
                                         5.792E-01 0.000E+00 0.000E+00 1.000E+00
   2 C    4.663  -2.692   4.924
   3 C    6.995   1.346   4.924
   4 C    9.327   5.385   4.924
   5 C    6.995  -6.731   4.924
   6 C    9.327  -2.692   4.924
   7 C   11.658   1.346   4.924
   8 C    2.332  -1.346   4.924
   9 C    4.663   2.692   4.924
  10 C    6.995   6.731   4.924
  11 C    6.995  -1.346   4.924
  12 C    9.327   2.692   4.924
  13 C    6.995  -9.423   4.924
  14 C    9.327  -5.385   4.924
  15 C   11.658  -1.346   4.924
 INFORMATION **** SET_MPP **** PCRYSTAL CALCULATION
 INFORMATION **** READM2 **** NEW DEFAULT: FOCK/KS MATRIX MIXING SET TO 30 %
 INFORMATION **** READM2 **** NEW DEFAULT: FULL DIRECT SCF MODE
 INFORMATION **** READM2 **** NEW DEFAULT: COULOMB BIPOLAR BUFFER SET TO 32 Mb
 INFORMATION **** READM2 **** NEW DEFAULT: EXCHANGE BIPOLAR BUFFER SET TO 32 Mb

 *******************************************************************************
 NEW DEFAULT: DFT INTEGRATION GRID INCREASED TO XLGRID
 NEW DEFAULT: DIIS ACCELERATOR ACTIVE
 USE KEYWORD NODIIS TO TURN IT OFF
 *******************************************************************************

 INFORMATION **** TOLINTEG **** COULOMB AND EXCHANGE SERIES TOLERANCES MODIFIED
 INFORMATION **** READM2 **** FULL DIRECT SCF (MONO AND BIEL INT) SELECTED
 INFORMATION **** MAXCYCLE **** MAX NUMBER OF SCF CYCLES SET TO         200
 INFORMATION **** TOLDEE **** SCF TOL ON TOTAL ENERGY SET TO           9
 *******************************************************************************
 N. OF ATOMS PER CELL        15  COULOMB OVERLAP TOL         (T1) 10**   -8
 NUMBER OF SHELLS           120  COULOMB PENETRATION TOL     (T2) 10**   -8
 NUMBER OF AO               270  EXCHANGE OVERLAP TOL        (T3) 10**   20
 N. OF ELECTRONS PER CELL    90  EXCHANGE PSEUDO OVP (F(G))  (T4) 10**   20
 CORE ELECTRONS PER CELL     30  EXCHANGE PSEUDO OVP (P(G))  (T5) 10**   20
 N. OF SYMMETRY OPERATORS     1  POLE ORDER IN MONO ZONE                  4
 *******************************************************************************
 TYPE OF CALCULATION :  RESTRICTED CLOSED SHELL
 KOHN-SHAM HAMILTONIAN

 (EXCHANGE)[CORRELATION] FUNCTIONAL:(PERDEW-BURKE-ERNZERHOF)[PERDEW-BURKE-ERNZERHOF]


 CAPPA:IS1  8;IS2  8;IS3  8; K PTS MONK NET 260; SYMMOPS:K SPACE   2;G SPACE   1

 *******************************************************************************
 MAX NUMBER OF SCF CYCLES     200  CONVERGENCE ON DELTAP        10**-19
 WEIGHT OF F(I) IN F(I+1)      30% CONVERGENCE ON ENERGY        10**- 9
 SHRINK. FACT.(MONKH.)    8  8  8  NUMBER OF K POINTS IN THE IBZ    260
 SHRINKING FACTOR(GILAT NET)   16  NUMBER OF K POINTS(GILAT NET)   2052
 *******************************************************************************
 *** K POINTS COORDINATES (OBLIQUE COORDINATES IN UNITS OF IS =  8)
   1-R(  0  0  0)   2-C(  1  0  0)   3-C(  2  0  0)   4-C(  3  0  0)
   5-R(  4  0  0)   6-C(  0  1  0)   7-C(  1  1  0)   8-C(  2  1  0)
   9-C(  3  1  0)  10-C(  4  1  0)  11-C(  5  1  0)  12-C(  6  1  0)
  13-C(  7  1  0)  14-C(  0  2  0)  15-C(  1  2  0)  16-C(  2  2  0)
  17-C(  3  2  0)  18-C(  4  2  0)  19-C(  5  2  0)  20-C(  6  2  0)
  21-C(  7  2  0)  22-C(  0  3  0)  23-C(  1  3  0)  24-C(  2  3  0)
  25-C(  3  3  0)  26-C(  4  3  0)  27-C(  5  3  0)  28-C(  6  3  0)
  29-C(  7  3  0)  30-R(  0  4  0)  31-C(  1  4  0)  32-C(  2  4  0)
  33-C(  3  4  0)  34-R(  4  4  0)  35-C(  0  0  1)  36-C(  1  0  1)
  37-C(  2  0  1)  38-C(  3  0  1)  39-C(  4  0  1)  40-C(  5  0  1)
  41-C(  6  0  1)  42-C(  7  0  1)  43-C(  0  1  1)  44-C(  1  1  1)
  45-C(  2  1  1)  46-C(  3  1  1)  47-C(  4  1  1)  48-C(  5  1  1)
  49-C(  6  1  1)  50-C(  7  1  1)  51-C(  0  2  1)  52-C(  1  2  1)
  53-C(  2  2  1)  54-C(  3  2  1)  55-C(  4  2  1)  56-C(  5  2  1)
  57-C(  6  2  1)  58-C(  7  2  1)  59-C(  0  3  1)  60-C(  1  3  1)
  61-C(  2  3  1)  62-C(  3  3  1)  63-C(  4  3  1)  64-C(  5  3  1)
  65-C(  6  3  1)  66-C(  7  3  1)  67-C(  0  4  1)  68-C(  1  4  1)
  69-C(  2  4  1)  70-C(  3  4  1)  71-C(  4  4  1)  72-C(  5  4  1)
  73-C(  6  4  1)  74-C(  7  4  1)  75-C(  0  5  1)  76-C(  1  5  1)
  77-C(  2  5  1)  78-C(  3  5  1)  79-C(  4  5  1)  80-C(  5  5  1)
  81-C(  6  5  1)  82-C(  7  5  1)  83-C(  0  6  1)  84-C(  1  6  1)
  85-C(  2  6  1)  86-C(  3  6  1)  87-C(  4  6  1)  88-C(  5  6  1)
  89-C(  6  6  1)  90-C(  7  6  1)  91-C(  0  7  1)  92-C(  1  7  1)
  93-C(  2  7  1)  94-C(  3  7  1)  95-C(  4  7  1)  96-C(  5  7  1)
  97-C(  6  7  1)  98-C(  7  7  1)  99-C(  0  0  2) 100-C(  1  0  2)
 101-C(  2  0  2) 102-C(  3  0  2) 103-C(  4  0  2) 104-C(  5  0  2)
 105-C(  6  0  2) 106-C(  7  0  2) 107-C(  0  1  2) 108-C(  1  1  2)
 109-C(  2  1  2) 110-C(  3  1  2) 111-C(  4  1  2) 112-C(  5  1  2)
 113-C(  6  1  2) 114-C(  7  1  2) 115-C(  0  2  2) 116-C(  1  2  2)
 117-C(  2  2  2) 118-C(  3  2  2) 119-C(  4  2  2) 120-C(  5  2  2)
 121-C(  6  2  2) 122-C(  7  2  2) 123-C(  0  3  2) 124-C(  1  3  2)
 125-C(  2  3  2) 126-C(  3  3  2) 127-C(  4  3  2) 128-C(  5  3  2)
 129-C(  6  3  2) 130-C(  7  3  2) 131-C(  0  4  2) 132-C(  1  4  2)
 133-C(  2  4  2) 134-C(  3  4  2) 135-C(  4  4  2) 136-C(  5  4  2)
 137-C(  6  4  2) 138-C(  7  4  2) 139-C(  0  5  2) 140-C(  1  5  2)
 141-C(  2  5  2) 142-C(  3  5  2) 143-C(  4  5  2) 144-C(  5  5  2)
 145-C(  6  5  2) 146-C(  7  5  2) 147-C(  0  6  2) 148-C(  1  6  2)
 149-C(  2  6  2) 150-C(  3  6  2) 151-C(  4  6  2) 152-C(  5  6  2)
 153-C(  6  6  2) 154-C(  7  6  2) 155-C(  0  7  2) 156-C(  1  7  2)
 157-C(  2  7  2) 158-C(  3  7  2) 159-C(  4  7  2) 160-C(  5  7  2)
 161-C(  6  7  2) 162-C(  7  7  2) 163-C(  0  0  3) 164-C(  1  0  3)
 165-C(  2  0  3) 166-C(  3  0  3) 167-C(  4  0  3) 168-C(  5  0  3)
 169-C(  6  0  3) 170-C(  7  0  3) 171-C(  0  1  3) 172-C(  1  1  3)
 173-C(  2  1  3) 174-C(  3  1  3) 175-C(  4  1  3) 176-C(  5  1  3)
 177-C(  6  1  3) 178-C(  7  1  3) 179-C(  0  2  3) 180-C(  1  2  3)
 181-C(  2  2  3) 182-C(  3  2  3) 183-C(  4  2  3) 184-C(  5  2  3)
 185-C(  6  2  3) 186-C(  7  2  3) 187-C(  0  3  3) 188-C(  1  3  3)
 189-C(  2  3  3) 190-C(  3  3  3) 191-C(  4  3  3) 192-C(  5  3  3)
 193-C(  6  3  3) 194-C(  7  3  3) 195-C(  0  4  3) 196-C(  1  4  3)
 197-C(  2  4  3) 198-C(  3  4  3) 199-C(  4  4  3) 200-C(  5  4  3)
 201-C(  6  4  3) 202-C(  7  4  3) 203-C(  0  5  3) 204-C(  1  5  3)
 205-C(  2  5  3) 206-C(  3  5  3) 207-C(  4  5  3) 208-C(  5  5  3)
 209-C(  6  5  3) 210-C(  7  5  3) 211-C(  0  6  3) 212-C(  1  6  3)
 213-C(  2  6  3) 214-C(  3  6  3) 215-C(  4  6  3) 216-C(  5  6  3)
 217-C(  6  6  3) 218-C(  7  6  3) 219-C(  0  7  3) 220-C(  1  7  3)
 221-C(  2  7  3) 222-C(  3  7  3) 223-C(  4  7  3) 224-C(  5  7  3)
 225-C(  6  7  3) 226-C(  7  7  3) 227-R(  0  0  4) 228-C(  1  0  4)
 229-C(  2  0  4) 230-C(  3  0  4) 231-R(  4  0  4) 232-C(  0  1  4)
 233-C(  1  1  4) 234-C(  2  1  4) 235-C(  3  1  4) 236-C(  4  1  4)
 237-C(  5  1  4) 238-C(  6  1  4) 239-C(  7  1  4) 240-C(  0  2  4)
 241-C(  1  2  4) 242-C(  2  2  4) 243-C(  3  2  4) 244-C(  4  2  4)
 245-C(  5  2  4) 246-C(  6  2  4) 247-C(  7  2  4) 248-C(  0  3  4)
 249-C(  1  3  4) 250-C(  2  3  4) 251-C(  3  3  4) 252-C(  4  3  4)
 253-C(  5  3  4) 254-C(  6  3  4) 255-C(  7  3  4) 256-R(  0  4  4)
 257-C(  1  4  4) 258-C(  2  4  4) 259-C(  3  4  4) 260-R(  4  4  4)

 DIRECT LATTICE VECTORS COMPON. (A.U.)     RECIP. LATTICE VECTORS COMPON. (A.U.) 
        X            Y            Z              X            Y            Z
    6.9949842  -12.1156680    0.0000000      0.4491208   -0.2593000    0.0000000
    6.9949842   12.1156680    0.0000000      0.4491208    0.2593000   -0.0000000
    0.0000000    0.0000000   16.4123433     -0.0000000    0.0000000    0.3828329

 DISK SPACE FOR EIGENVECTORS (FTN 10)    37324800 REALS

 SYMMETRY ADAPTION OF THE BLOCH FUNCTIONS DISABLED
 TTTTTTTTTTTTTTTTTTTTTTTTTTTTTT gordsh1     TELAPSE        2.49 TCPU        1.59

 MATRIX SIZE: P(G)  111114, F(G)   55737, P(G) IRR   56022, F(G) IRR   56022
 MAX G-VECTOR INDEX FOR 1- AND 2-ELECTRON INTEGRALS  27

 TTTTTTTTTTTTTTTTTTTTTTTTTTTTTT INPUT       TELAPSE        2.50 TCPU        1.60

 NEIGHBORS OF THE NON-EQUIVALENT ATOMS

 N = NUMBER OF NEIGHBORS AT DISTANCE R
    ATOM  N     R/ANG      R/AU   NEIGHBORS (ATOM LABELS AND CELL INDICES)
   1 C    3     1.4247     2.6924    8 C    0 1 0   10 C    0 0 0   15 C   -1 0 0
   1 C    4     2.4677     4.6633    2 C    0 1 0    4 C    0 0 0    6 C   -1 0 0
                                     7 C   -1 0 0
   1 C    2     2.8495     5.3847   13 C   -1 1 0   14 C   -1 0 0
   1 C    6     3.7695     7.1233    9 C    0 0 0    9 C    0 1 0   11 C   -1 0 0
                                    11 C    0 1 0   12 C    0 0 0   12 C   -1 0 0
   1 C    6     4.2742     8.0771    3 C    0 0 0    3 C   -1 0 0    3 C    0 1 0
                                     5 C   -1 0 0    5 C    0 1 0    5 C   -1 1 0
   1 C    4     4.9354     9.3266    2 C   -1 0 0    4 C   -1 0 0    6 C    0 1 0
                                     7 C    0 0 0

   2 C    2     1.4247     2.6924    8 C    0 0 0   11 C    0 0 0
   2 C    5     2.4677     4.6633    1 C    0-1 0    3 C    0 0 0    4 C    0-1 0
                                     5 C    0 0 0    6 C    0 0 0
   2 C    3     2.8495     5.3847    9 C    0 0 0   10 C    0-1 0   14 C    0 0 0
   2 C    6     3.7695     7.1233   12 C    0 0 0   12 C    0-1 0   13 C    0 0 0
                                    13 C   -1 0 0   15 C    0 0 0   15 C   -1-1 0
   2 C    3     4.2742     8.0771    7 C    0 0 0    7 C   -1-1 0    7 C    0-1 0
   2 C    5     4.9354     9.3266    1 C    1 0 0    3 C    0-1 0    4 C    0 0 0
                                     5 C   -1 0 0    6 C   -1-1 0

   3 C    3     1.4247     2.6924    9 C    0 0 0   11 C    0 0 0   12 C    0 0 0
   3 C    4     2.4677     4.6633    2 C    0 0 0    4 C    0 0 0    6 C    0 0 0
                                     7 C    0 0 0
   3 C    3     2.8495     5.3847    8 C    0 0 0   10 C    0 0 0   15 C    0 0 0
   3 C    4     3.7695     7.1233   13 C   -1 0 0   13 C    0 1 0   14 C    0 0 0
                                    14 C   -1 0 0
   3 C    6     4.2742     8.0771    1 C    0 0 0    1 C    1 0 0    1 C    0-1 0
                                     5 C    0 0 0    5 C   -1 0 0    5 C    0 1 0
   3 C    4     4.9354     9.3266    2 C    0 1 0    4 C    0-1 0    6 C   -1 0 0
                                     7 C   -1-1 0

   4 C    2     1.4247     2.6924   10 C    0 0 0   12 C    0 0 0
   4 C    5     2.4677     4.6633    1 C    0 0 0    2 C    0 1 0    3 C    0 0 0
                                     5 C    0 1 0    7 C    0 0 0
   4 C    3     2.8495     5.3847    8 C    0 1 0    9 C    0 0 0   13 C    0 1 0
   4 C    6     3.7695     7.1233   11 C    0 0 0   11 C    0 1 0   14 C   -1 0 0
                                    14 C    0 1 0   15 C    0 0 0   15 C   -1 0 0
   4 C    3     4.2742     8.0771    6 C    0 0 0    6 C   -1 0 0    6 C    0 1 0
   4 C    5     4.9354     9.3266    1 C    1 0 0    2 C    0 0 0    3 C    0 1 0
                                     5 C   -1 0 0    7 C   -1 0 0

   5 C    2     1.4247     2.6924   13 C    0 0 0   14 C    0 0 0
   5 C    4     2.4677     4.6633    2 C    0 0 0    4 C    0-1 0    6 C    0 0 0
                                     7 C    0-1 0
   5 C    3     2.8495     5.3847    9 C    1 0 0   11 C    0 0 0   12 C    0-1 0
   5 C    6     3.7695     7.1233    8 C    0 0 0    8 C    1 0 0   10 C    1 0 0
                                    10 C    0-1 0   15 C    0 0 0   15 C    0-1 0
   5 C    6     4.2742     8.0771    1 C    1 0 0    1 C    0-1 0    1 C    1-1 0
                                     3 C    0 0 0    3 C    1 0 0    3 C    0-1 0
   5 C    4     4.9354     9.3266    2 C    1 0 0    4 C    1 0 0    6 C    0-1 0
                                     7 C    0 0 0

   6 C    3     1.4247     2.6924   11 C    0 0 0   14 C    0 0 0   15 C    0 0 0
   6 C    5     2.4677     4.6633    1 C    1 0 0    2 C    0 0 0    3 C    0 0 0
                                     5 C    0 0 0    7 C    0 0 0
   6 C    2     2.8495     5.3847   10 C    1 0 0   12 C    0 0 0
   6 C    6     3.7695     7.1233    8 C    0 0 0    8 C    1 1 0    9 C    0 0 0
                                     9 C    1 0 0   13 C    0 0 0   13 C    0 1 0
   6 C    3     4.2742     8.0771    4 C    0 0 0    4 C    1 0 0    4 C    0-1 0
   6 C    5     4.9354     9.3266    1 C    0-1 0    2 C    1 1 0    3 C    1 0 0
                                     5 C    0 1 0    7 C    0-1 0

   7 C    3     1.4247     2.6924   12 C    0 0 0   13 C    0 1 0   15 C    0 0 0
   7 C    5     2.4677     4.6633    1 C    1 0 0    3 C    0 0 0    4 C    0 0 0
                                     5 C    0 1 0    6 C    0 0 0
   7 C    2     2.8495     5.3847    8 C    1 1 0   11 C    0 0 0
   7 C    6     3.7695     7.1233    9 C    0 0 0    9 C    1 1 0   10 C    0 0 0
                                    10 C    1 0 0   14 C    0 0 0   14 C    0 1 0
   7 C    3     4.2742     8.0771    2 C    0 0 0    2 C    1 1 0    2 C    0 1 0
   7 C    5     4.9354     9.3266    1 C    0 0 0    3 C    1 1 0    4 C    1 0 0
                                     5 C    0 0 0    6 C    0 1 0

   8 C    2     1.4247     2.6924    1 C    0-1 0    2 C    0 0 0
   8 C    5     2.4677     4.6633    9 C    0 0 0   10 C    0-1 0   11 C    0 0 0
                                    13 C   -1 0 0   15 C   -1-1 0
   8 C    3     2.8495     5.3847    3 C    0 0 0    4 C    0-1 0    7 C   -1-1 0
   8 C    4     3.7695     7.1233    5 C    0 0 0    5 C   -1 0 0    6 C    0 0 0
                                     6 C   -1-1 0
   8 C    6     4.2742     8.0771   12 C    0 0 0   12 C   -1-1 0   12 C    0-1 0
                                    14 C    0 0 0   14 C   -1-1 0   14 C   -1 0 0
   8 C    5     4.9354     9.3266    9 C    0-1 0   10 C    0 0 0   11 C   -1-1 0
                                    13 C    0 0 0   15 C    0 0 0

   9 C    1     1.4247     2.6924    3 C    0 0 0
   9 C    6     2.4677     4.6633    8 C    0 0 0   10 C    0 0 0   11 C    0 0 0
                                    12 C    0 0 0   13 C   -1 0 0   14 C   -1 0 0
   9 C    3     2.8495     5.3847    2 C    0 0 0    4 C    0 0 0    5 C   -1 0 0
   9 C    6     3.7695     7.1233    1 C    0 0 0    1 C    0-1 0    6 C    0 0 0
                                     6 C   -1 0 0    7 C    0 0 0    7 C   -1-1 0
   9 C    3     4.2742     8.0771   15 C    0 0 0   15 C   -1-1 0   15 C   -1 0 0
   9 C    6     4.9354     9.3266    8 C    0 1 0   10 C    0-1 0   11 C   -1 0 0
                                    12 C   -1-1 0   13 C    0 1 0   14 C    0 0 0

  10 C    2     1.4247     2.6924    1 C    0 0 0    4 C    0 0 0
  10 C    5     2.4677     4.6633    8 C    0 1 0    9 C    0 0 0   12 C    0 0 0
                                    14 C   -1 0 0   15 C   -1 0 0
  10 C    3     2.8495     5.3847    2 C    0 1 0    3 C    0 0 0    6 C   -1 0 0
  10 C    4     3.7695     7.1233    5 C   -1 0 0    5 C    0 1 0    7 C    0 0 0
                                     7 C   -1 0 0
  10 C    6     4.2742     8.0771   11 C    0 0 0   11 C   -1 0 0   11 C    0 1 0
                                    13 C   -1 0 0   13 C    0 1 0   13 C   -1 1 0
  10 C    5     4.9354     9.3266    8 C    0 0 0    9 C    0 1 0   12 C   -1 0 0
                                    14 C    0 1 0   15 C    0 0 0

  11 C    3     1.4247     2.6924    2 C    0 0 0    3 C    0 0 0    6 C    0 0 0
  11 C    5     2.4677     4.6633    8 C    0 0 0    9 C    0 0 0   12 C    0 0 0
                                    14 C    0 0 0   15 C    0 0 0
  11 C    2     2.8495     5.3847    5 C    0 0 0    7 C    0 0 0
  11 C    4     3.7695     7.1233    1 C    1 0 0    1 C    0-1 0    4 C    0 0 0
                                     4 C    0-1 0
  11 C    6     4.2742     8.0771   10 C    0 0 0   10 C    1 0 0   10 C    0-1 0
                                    13 C    0 0 0   13 C   -1 0 0   13 C    0 1 0
  11 C    5     4.9354     9.3266    8 C    1 1 0    9 C    1 0 0   12 C    0-1 0
                                    14 C   -1 0 0   15 C   -1-1 0

  12 C    3     1.4247     2.6924    3 C    0 0 0    4 C    0 0 0    7 C    0 0 0
  12 C    5     2.4677     4.6633    9 C    0 0 0   10 C    0 0 0   11 C    0 0 0
                                    13 C    0 1 0   15 C    0 0 0
  12 C    2     2.8495     5.3847    5 C    0 1 0    6 C    0 0 0
  12 C    4     3.7695     7.1233    1 C    0 0 0    1 C    1 0 0    2 C    0 0 0
                                     2 C    0 1 0
  12 C    6     4.2742     8.0771    8 C    0 0 0    8 C    1 1 0    8 C    0 1 0
                                    14 C    0 0 0   14 C   -1 0 0   14 C    0 1 0
  12 C    5     4.9354     9.3266    9 C    1 1 0   10 C    1 0 0   11 C    0 1 0
                                    13 C   -1 0 0   15 C   -1 0 0

  13 C    2     1.4247     2.6924    5 C    0 0 0    7 C    0-1 0
  13 C    5     2.4677     4.6633    8 C    1 0 0    9 C    1 0 0   12 C    0-1 0
                                    14 C    0 0 0   15 C    0-1 0
  13 C    2     2.8495     5.3847    1 C    1-1 0    4 C    0-1 0
  13 C    6     3.7695     7.1233    2 C    0 0 0    2 C    1 0 0    3 C    1 0 0
                                     3 C    0-1 0    6 C    0 0 0    6 C    0-1 0
  13 C    6     4.2742     8.0771   10 C    1 0 0   10 C    0-1 0   10 C    1-1 0
                                    11 C    0 0 0   11 C    1 0 0   11 C    0-1 0
  13 C    5     4.9354     9.3266    8 C    0 0 0    9 C    0-1 0   12 C    1 0 0
                                    14 C    0-1 0   15 C    0 0 0

  14 C    2     1.4247     2.6924    5 C    0 0 0    6 C    0 0 0
  14 C    5     2.4677     4.6633    9 C    1 0 0   10 C    1 0 0   11 C    0 0 0
                                    13 C    0 0 0   15 C    0 0 0
  14 C    2     2.8495     5.3847    1 C    1 0 0    2 C    0 0 0
  14 C    6     3.7695     7.1233    3 C    0 0 0    3 C    1 0 0    4 C    1 0 0
                                     4 C    0-1 0    7 C    0 0 0    7 C    0-1 0
  14 C    6     4.2742     8.0771    8 C    0 0 0    8 C    1 1 0    8 C    1 0 0
                                    12 C    0 0 0   12 C    1 0 0   12 C    0-1 0
  14 C    5     4.9354     9.3266    9 C    0 0 0   10 C    0-1 0   11 C    1 0 0
                                    13 C    0 1 0   15 C    0-1 0

  15 C    3     1.4247     2.6924    1 C    1 0 0    6 C    0 0 0    7 C    0 0 0
  15 C    6     2.4677     4.6633    8 C    1 1 0   10 C    1 0 0   11 C    0 0 0
                                    12 C    0 0 0   13 C    0 1 0   14 C    0 0 0
  15 C    1     2.8495     5.3847    3 C    0 0 0
  15 C    6     3.7695     7.1233    2 C    0 0 0    2 C    1 1 0    4 C    0 0 0
                                     4 C    1 0 0    5 C    0 0 0    5 C    0 1 0
  15 C    3     4.2742     8.0771    9 C    0 0 0    9 C    1 1 0    9 C    1 0 0
  15 C    6     4.9354     9.3266    8 C    0 0 0   10 C    0 0 0   11 C    1 1 0
                                    12 C    1 0 0   13 C    0 0 0   14 C    0 1 0


 SYMMETRY ALLOWED INTERNAL DEGREE(S) OF FREEDOM:  42
 TTTTTTTTTTTTTTTTTTTTTTTTTTTTTT SYMM        TELAPSE        2.50 TCPU        1.60
 TTTTTTTTTTTTTTTTTTTTTTTTTTTTTT INT_SCREEN  TELAPSE        2.51 TCPU        1.60

 *******************************************************************************
 *                             OPTIMIZATION STARTS                             *
 *******************************************************************************
 RECLASIFICATION OF INDICES FOR INTEGRAL CALC ACCORDING TO DIFFERENT CRITERIA:
           FIXDELTE                  FIXDELTX              FIXDELTN
          0.10000000               0.80000000                 42
 DEFAULT MAX NUM OF POINTS  100
 *******************************************************************************

 *******************************************************************************
 COORDINATE OPTIMIZATION - POINT    1
 INFORMATION **** EXCBUF **** EXCH. BIPO BUFFER: WORDS USED =           0

 DFT PARAMETERS

     ATOM       ELECTRONS   NET CHARGE   R(ANGSTROM)
   1   6  C       6.0000      0.0000     0.77000000

 SIZE OF GRID=     504676
 TTTTTTTTTTTTTTTTTTTTTTTTTTTTTT MAKE_GRID2  TELAPSE        2.92 TCPU        2.01
 BECKE WEIGHT FUNCTION
 RADSAFE =     2.00
 TOLERANCES - DENSITY:10**- 6; POTENTIAL:10**- 9; GRID WGT:10**-14

 RADIAL INTEGRATION  - INTERVALS (POINTS,UPPER LIMIT):            1( 75,  4.0*R)

 ANGULAR INTEGRATION - INTERVALS (ACCURACY LEVEL [N. POINTS] UPPER LIMIT):
  1(  4[  86]   0.2)  2(  8[ 194]   0.5)  3( 12[ 350]   0.9)  4( 16[ 974]   3.5)
  5( 12[ 350]9999.0)
 TTTTTTTTTTTTTTTTTTTTTTTTTTTTTT INT_CALC    TELAPSE        2.95 TCPU        2.04

 *******************************************************************************
 Final                                                                           
 CRYSTAL - SCF - TYPE OF CALCULATION :  RESTRICTED CLOSED SHELL
 *******************************************************************************

 CAPPA:IS1  8;IS2  8;IS3  8; K PTS MONK NET 260; SYMMOPS:K SPACE   2;G SPACE   1

 TTTTTTTTTTTTTTTTTTTTTTTTTTTTTT SDIK        TELAPSE        3.01 TCPU        2.10

 AAAAAAAAAAAAAAAAAAAAAAAAAAAAAAAAAAAAAAAAAAAAAAAAAAAAAAAAAAAAAAAAAAAAAAAAAAAAAAA
         ATOMIC WAVEFUNCTION(S)


 NUCLEAR CHARGE  6.0  SYMMETRY SPECIES            S    P
 N. ELECTRONS    6.0  NUMBER OF PRIMITIVE GTOS   10    6
                      NUMBER OF CONTRACTED GTOS   4    3
                      NUMBER OF CLOSED SHELLS     2    0
                      OPEN SHELL OCCUPATION       0    2

  ZNUC SCFIT  TOTAL HF ENERGY   KINETIC ENERGY   VIRIAL THEOREM ACCURACY
   6.0  10   -3.768111494E+01  3.771190961E+01 -1.999183423E+00  3.4E-06

 AAAAAAAAAAAAAAAAAAAAAAAAAAAAAAAAAAAAAAAAAAAAAAAAAAAAAAAAAAAAAAAAAAAAAAAAAAAAAAA

 CHARGE NORMALIZATION FACTOR   1.00000000
 TOTAL ATOMIC CHARGES:
   6.0000000   6.0000000   6.0000000   6.0000000   6.0000000   6.0000000
   6.0000000   6.0000000   6.0000000   6.0000000   6.0000000   6.0000000
   6.0000000   6.0000000   6.0000000
 TTTTTTTTTTTTTTTTTTTTTTTTTTTTTT MOQGAD      TELAPSE        3.01 TCPU        2.11
 TTTTTTTTTTTTTTTTTTTTTTTTTTTTTT SHELLXN     TELAPSE        3.55 TCPU        2.64
 TTTTTTTTTTTTTTTTTTTTTTTTTTTTTT MONMO3      TELAPSE        3.74 TCPU        2.83
 NUMERICALLY INTEGRATED DENSITY     89.9998123857
 TTTTTTTTTTTTTTTTTTTTTTTTTTTTTT NUMDFT      TELAPSE        3.89 TCPU        2.98
 CYC   0 ETOT(AU) -5.736238996398E+02 DETOT -5.74E+02 tst  0.00E+00 PX  1.00E+00
 TTTTTTTTTTTTTTTTTTTTTTTTTTTTTT DIIS        TELAPSE        3.90 TCPU        2.99
 TTTTTTTTTTTTTTTTTTTTTTTTTTTTTT FDIK        TELAPSE        4.06 TCPU        3.15
 INSULATING STATE
 TOP OF VALENCE BANDS -    BAND     45; K   39; EIG -2.4166910E-01 AU
 TOP OF VALENCE BANDS -    BAND     45; K    1; EIG -2.4777499E-01 AU
 BOTTOM OF VIRTUAL BANDS - BAND     46; K    2; EIG -2.4157174E-01 AU
 INDIRECT ENERGY BAND GAP:   0.0026 eV
 BOTTOM OF VIRTUAL BANDS - BAND     46; K    1; EIG -2.4153924E-01 AU
 TTTTTTTTTTTTTTTTTTTTTTTTTTTTTT PDIG        TELAPSE        4.11 TCPU        3.20
 CHARGE NORMALIZATION FACTOR   1.00000000
 TOTAL ATOMIC CHARGES:
   6.0737310   6.1364945   6.1407134   6.1365056   6.1316733   6.0819293
   6.0819280   5.9828808   5.5368539   5.9828880   5.9261876   5.9261838
   5.9154096   5.9154092   6.0312119
 TTTTTTTTTTTTTTTTTTTTTTTTTTTTTT MOQGAD      TELAPSE        4.11 TCPU        3.20
 TTTTTTTTTTTTTTTTTTTTTTTTTTTTTT SHELLXN     TELAPSE        4.73 TCPU        3.81
 TTTTTTTTTTTTTTTTTTTTTTTTTTTTTT MONMO3      TELAPSE        4.94 TCPU        4.02
 NUMERICALLY INTEGRATED DENSITY     89.9998561548
 TTTTTTTTTTTTTTTTTTTTTTTTTTTTTT NUMDFT      TELAPSE        5.19 TCPU        4.28
 CYC   1 ETOT(AU) -5.703397515001E+02 DETOT  3.28E+00 tst  0.00E+00 PX  1.00E+00
 TTTTTTTTTTTTTTTTTTTTTTTTTTTTTT DIIS        TELAPSE        5.21 TCPU        4.29
 DIIS TEST: 0.86553E+00 AT SCF   CYCLE   1 - MIX   30 %
 TTTTTTTTTTTTTTTTTTTTTTTTTTTTTT FDIK        TELAPSE        5.37 TCPU        4.46
 INSULATING STATE
 TOP OF VALENCE BANDS -    BAND     45; K   41; EIG -1.9346586E-01 AU
 TOP OF VALENCE BANDS -    BAND     45; K    1; EIG -2.1024473E-01 AU
 BOTTOM OF VIRTUAL BANDS - BAND     46; K   32; EIG -1.9062927E-01 AU
 INDIRECT ENERGY BAND GAP:   0.0772 eV
 BOTTOM OF VIRTUAL BANDS - BAND     46; K    1; EIG -1.8172415E-01 AU
 TTTTTTTTTTTTTTTTTTTTTTTTTTTTTT PDIG        TELAPSE        5.43 TCPU        4.51
 CHARGE NORMALIZATION FACTOR   1.00000000
 TOTAL ATOMIC CHARGES:
   5.6765894   5.4428406   5.7177421   5.4428431   5.7224908   5.7713313
   5.7713301   6.1742625   7.7624717   6.1742700   5.9999235   5.9999192
   6.1894485   6.1894401   5.9650973
 TTTTTTTTTTTTTTTTTTTTTTTTTTTTTT MOQGAD      TELAPSE        5.43 TCPU        4.51
 TTTTTTTTTTTTTTTTTTTTTTTTTTTTTT SHELLXN     TELAPSE        6.05 TCPU        5.13
 TTTTTTTTTTTTTTTTTTTTTTTTTTTTTT MONMO3      TELAPSE        6.26 TCPU        5.34
 NUMERICALLY INTEGRATED DENSITY     89.9998246051
 TTTTTTTTTTTTTTTTTTTTTTTTTTTTTT NUMDFT      TELAPSE        6.51 TCPU        5.59
 CYC   2 ETOT(AU) -5.695662525570E+02 DETOT  7.73E-01 tst  1.22E-01 PX  3.58E-01
 TTTTTTTTTTTTTTTTTTTTTTTTTTTTTT DIIS        TELAPSE        6.52 TCPU        5.61
 DIIS TEST: 0.65935E+01 AT SCF   CYCLE   2 - DIIS ACTIVE - HISTORY:     2 CYCLES
 TTTTTTTTTTTTTTTTTTTTTTTTTTTTTT FDIK        TELAPSE        6.71 TCPU        5.79
 INSULATING STATE
 TOP OF VALENCE BANDS -    BAND     45; K   81; EIG -1.6504219E-01 AU
 TOP OF VALENCE BANDS -    BAND     45; K    1; EIG -1.6821535E-01 AU
 BOTTOM OF VIRTUAL BANDS - BAND     46; K    5; EIG -1.5717483E-01 AU
 INDIRECT ENERGY BAND GAP:   0.2141 eV
 BOTTOM OF VIRTUAL BANDS - BAND     46; K    1; EIG -1.4839421E-01 AU
 TTTTTTTTTTTTTTTTTTTTTTTTTTTTTT PDIG        TELAPSE        6.76 TCPU        5.83
 CHARGE NORMALIZATION FACTOR   1.00000000
 TOTAL ATOMIC CHARGES:
   5.9231732   6.3755064   5.8202472   6.3755111   6.2182083   5.9726201
   5.9726177   6.0603400   5.4273891   6.0603479   5.9447880   5.9447843
   5.9588282   5.9588272   5.9868114
 TTTTTTTTTTTTTTTTTTTTTTTTTTTTTT MOQGAD      TELAPSE        6.76 TCPU        5.83
 TTTTTTTTTTTTTTTTTTTTTTTTTTTTTT SHELLXN     TELAPSE        7.35 TCPU        6.43
 TTTTTTTTTTTTTTTTTTTTTTTTTTTTTT MONMO3      TELAPSE        8.40 TCPU        7.48
 NUMERICALLY INTEGRATED DENSITY     89.9998209675
 TTTTTTTTTTTTTTTTTTTTTTTTTTTTTT NUMDFT      TELAPSE        8.76 TCPU        7.83
 CYC   3 ETOT(AU) -5.703008525291E+02 DETOT -7.35E-01 tst  1.25E-01 PX  3.24E-01
 TTTTTTTTTTTTTTTTTTTTTTTTTTTTTT DIIS        TELAPSE        8.78 TCPU        7.85
 DIIS TEST: 0.12547E+01 AT SCF   CYCLE   3 - DIIS ACTIVE - HISTORY:     3 CYCLES
 TTTTTTTTTTTTTTTTTTTTTTTTTTTTTT FDIK        TELAPSE        9.30 TCPU        7.95
 POSSIBLY CONDUCTING STATE - EFERMI(AU) -1.7178538E-01 (RES. CHARGE  1.31E-10;IT. 12)
 TTTTTTTTTTTTTTTTTTTTTTTTTTTTTT PDIG        TELAPSE        9.39 TCPU        8.03
 CHARGE NORMALIZATION FACTOR   1.00000000
 TOTAL ATOMIC CHARGES:
   5.9814966   5.8642042   6.0551013   5.8647047   5.9781889   6.0251549
   6.0249960   6.0768515   6.0105974   6.0758132   5.9944306   5.9931659
   5.9706497   5.9722095   6.1124357
 TTTTTTTTTTTTTTTTTTTTTTTTTTTTTT MOQGAD      TELAPSE        9.39 TCPU        8.03
 TTTTTTTTTTTTTTTTTTTTTTTTTTTTTT SHELLXN     TELAPSE       10.00 TCPU        8.65
 TTTTTTTTTTTTTTTTTTTTTTTTTTTTTT MONMO3      TELAPSE       10.22 TCPU        8.86
 NUMERICALLY INTEGRATED DENSITY     89.9998266537
 TTTTTTTTTTTTTTTTTTTTTTTTTTTTTT NUMDFT      TELAPSE       10.47 TCPU        9.12
 CYC   4 ETOT(AU) -5.704422459649E+02 DETOT -1.41E-01 tst  8.63E-03 PX  1.05E-01
 TTTTTTTTTTTTTTTTTTTTTTTTTTTTTT DIIS        TELAPSE       10.49 TCPU        9.13
 DIIS TEST: 0.19770E+00 AT SCF   CYCLE   4 - DIIS ACTIVE - HISTORY:     4 CYCLES
 TTTTTTTTTTTTTTTTTTTTTTTTTTTTTT FDIK        TELAPSE       10.66 TCPU        9.31
 POSSIBLY CONDUCTING STATE - EFERMI(AU) -1.9136085E-01 (RES. CHARGE  1.36E-10;IT. 12)
 TTTTTTTTTTTTTTTTTTTTTTTTTTTTTT PDIG        TELAPSE       10.76 TCPU        9.40
 CHARGE NORMALIZATION FACTOR   1.00000000
 TOTAL ATOMIC CHARGES:
   5.9290365   6.1893772   5.9433888   6.1880440   6.1635058   5.9539856
   5.9547868   5.9497586   6.1864035   5.9511948   5.9174628   5.9195837
   5.9284628   5.9224442   5.9025647
 TTTTTTTTTTTTTTTTTTTTTTTTTTTTTT MOQGAD      TELAPSE       10.76 TCPU        9.41
 TTTTTTTTTTTTTTTTTTTTTTTTTTTTTT SHELLXN     TELAPSE       11.38 TCPU       10.02
 TTTTTTTTTTTTTTTTTTTTTTTTTTTTTT MONMO3      TELAPSE       11.59 TCPU       10.23
 NUMERICALLY INTEGRATED DENSITY     89.9998302637
 TTTTTTTTTTTTTTTTTTTTTTTTTTTTTT NUMDFT      TELAPSE       11.85 TCPU       10.49
 CYC   5 ETOT(AU) -5.704310002598E+02 DETOT  1.12E-02 tst  1.47E-03 PX  7.63E-02
 TTTTTTTTTTTTTTTTTTTTTTTTTTTTTT DIIS        TELAPSE       11.86 TCPU       10.50
 DIIS TEST: 0.29555E+00 AT SCF   CYCLE   5 - DIIS ACTIVE - HISTORY:     5 CYCLES
 TTTTTTTTTTTTTTTTTTTTTTTTTTTTTT FDIK        TELAPSE       12.04 TCPU       10.68
 INSULATING STATE
 TOP OF VALENCE BANDS -    BAND     45; K    5; EIG -1.8770376E-01 AU
 TOP OF VALENCE BANDS -    BAND     45; K    1; EIG -1.9065484E-01 AU
 BOTTOM OF VIRTUAL BANDS - BAND     46; K   42; EIG -1.8671959E-01 AU
 INDIRECT ENERGY BAND GAP:   0.0268 eV
 BOTTOM OF VIRTUAL BANDS - BAND     46; K    1; EIG -1.8562875E-01 AU
 TTTTTTTTTTTTTTTTTTTTTTTTTTTTTT PDIG        TELAPSE       12.09 TCPU       10.73
 CHARGE NORMALIZATION FACTOR   1.00000000
 TOTAL ATOMIC CHARGES:
   5.9685555   6.0018245   5.8894104   6.0034479   6.0170256   5.9804595
   5.9791723   6.1567022   5.7788689   6.1572627   5.9308545   5.9298878
   6.0790607   6.0887169   6.0387504
 TTTTTTTTTTTTTTTTTTTTTTTTTTTTTT MOQGAD      TELAPSE       12.10 TCPU       10.73
 TTTTTTTTTTTTTTTTTTTTTTTTTTTTTT SHELLXN     TELAPSE       12.71 TCPU       11.35
 TTTTTTTTTTTTTTTTTTTTTTTTTTTTTT MONMO3      TELAPSE       12.92 TCPU       11.56
 NUMERICALLY INTEGRATED DENSITY     89.9998315389
 TTTTTTTTTTTTTTTTTTTTTTTTTTTTTT NUMDFT      TELAPSE       13.18 TCPU       11.82
 CYC   6 ETOT(AU) -5.704419197465E+02 DETOT -1.09E-02 tst  1.42E-03 PX  4.98E-02
 TTTTTTTTTTTTTTTTTTTTTTTTTTTTTT DIIS        TELAPSE       13.21 TCPU       11.84
 DIIS TEST: 0.18106E+00 AT SCF   CYCLE   6 - DIIS ACTIVE - HISTORY:     6 CYCLES
 TTTTTTTTTTTTTTTTTTTTTTTTTTTTTT FDIK        TELAPSE       13.39 TCPU       12.02
 INSULATING STATE
 TOP OF VALENCE BANDS -    BAND     45; K   41; EIG -1.8735733E-01 AU
 TOP OF VALENCE BANDS -    BAND     45; K    1; EIG -1.8760275E-01 AU
 BOTTOM OF VIRTUAL BANDS - BAND     46; K    2; EIG -1.8662649E-01 AU
 INDIRECT ENERGY BAND GAP:   0.0199 eV
 BOTTOM OF VIRTUAL BANDS - BAND     46; K    1; EIG -1.8603182E-01 AU
 TTTTTTTTTTTTTTTTTTTTTTTTTTTTTT PDIG        TELAPSE       13.44 TCPU       12.07
 CHARGE NORMALIZATION FACTOR   1.00000000
 TOTAL ATOMIC CHARGES:
   5.9396979   6.0609206   5.9427237   6.0594669   6.0547116   5.9973827
   5.9980632   6.0490983   5.9421206   6.0479566   5.9770968   5.9770902
   5.9584554   5.9531232   6.0420923
 TTTTTTTTTTTTTTTTTTTTTTTTTTTTTT MOQGAD      TELAPSE       13.44 TCPU       12.07
 TTTTTTTTTTTTTTTTTTTTTTTTTTTTTT SHELLXN     TELAPSE       14.06 TCPU       12.69
 TTTTTTTTTTTTTTTTTTTTTTTTTTTTTT MONMO3      TELAPSE       14.27 TCPU       12.90
 NUMERICALLY INTEGRATED DENSITY     89.9998306737
 TTTTTTTTTTTTTTTTTTTTTTTTTTTTTT NUMDFT      TELAPSE       14.53 TCPU       13.15
 CYC   7 ETOT(AU) -5.704623189790E+02 DETOT -2.04E-02 tst  4.84E-04 PX  2.23E-02
 TTTTTTTTTTTTTTTTTTTTTTTTTTTTTT DIIS        TELAPSE       14.54 TCPU       13.17
 DIIS TEST: 0.16134E-01 AT SCF   CYCLE   7 - DIIS ACTIVE - HISTORY:     7 CYCLES
 TTTTTTTTTTTTTTTTTTTTTTTTTTTTTT FDIK        TELAPSE       14.72 TCPU       13.35
 INSULATING STATE
 TOP OF VALENCE BANDS -    BAND     45; K    3; EIG -1.8688148E-01 AU
 TOP OF VALENCE BANDS -    BAND     45; K    1; EIG -1.8695358E-01 AU
 BOTTOM OF VIRTUAL BANDS - BAND     46; K    1; EIG -1.8665383E-01 AU
 INDIRECT ENERGY BAND GAP:   0.0062 eV
 TTTTTTTTTTTTTTTTTTTTTTTTTTTTTT PDIG        TELAPSE       14.77 TCPU       13.40
 CHARGE NORMALIZATION FACTOR   1.00000000
 TOTAL ATOMIC CHARGES:
   5.9770050   6.0136561   5.9794660   6.0268493   6.0961046   6.0004232
   5.9975193   6.0356448   5.9783341   6.0334292   5.9476021   5.9464088
   5.9607035   5.9867686   6.0200854
 TTTTTTTTTTTTTTTTTTTTTTTTTTTTTT MOQGAD      TELAPSE       14.77 TCPU       13.40
 TTTTTTTTTTTTTTTTTTTTTTTTTTTTTT SHELLXN     TELAPSE       15.39 TCPU       14.01
 TTTTTTTTTTTTTTTTTTTTTTTTTTTTTT MONMO3      TELAPSE       15.60 TCPU       14.23
 NUMERICALLY INTEGRATED DENSITY     89.9998304774
 TTTTTTTTTTTTTTTTTTTTTTTTTTTTTT NUMDFT      TELAPSE       15.86 TCPU       14.48
 CYC   8 ETOT(AU) -5.704637068828E+02 DETOT -1.39E-03 tst  6.55E-05 PX  1.80E-02
 TTTTTTTTTTTTTTTTTTTTTTTTTTTTTT DIIS        TELAPSE       15.87 TCPU       14.50
 DIIS TEST: 0.45157E-02 AT SCF   CYCLE   8 - DIIS ACTIVE - HISTORY:     8 CYCLES
 TTTTTTTTTTTTTTTTTTTTTTTTTTTTTT FDIK        TELAPSE       16.05 TCPU       14.68
 INSULATING STATE
 TOP OF VALENCE BANDS -    BAND     45; K   41; EIG -1.8716929E-01 AU
 TOP OF VALENCE BANDS -    BAND     45; K    1; EIG -1.8762487E-01 AU
 BOTTOM OF VIRTUAL BANDS - BAND     46; K    2; EIG -1.8674306E-01 AU
 INDIRECT ENERGY BAND GAP:   0.0116 eV
 BOTTOM OF VIRTUAL BANDS - BAND     46; K    1; EIG -1.8668537E-01 AU
 TTTTTTTTTTTTTTTTTTTTTTTTTTTTTT PDIG        TELAPSE       16.10 TCPU       14.72
 CHARGE NORMALIZATION FACTOR   1.00000000
 TOTAL ATOMIC CHARGES:
   5.9670778   6.0524940   5.9864977   6.0135874   6.0498722   5.9901464
   5.9976883   6.0457555   5.9818414   6.0578104   5.9512760   5.9556203
   5.9991620   5.9294664   6.0217041
 TTTTTTTTTTTTTTTTTTTTTTTTTTTTTT MOQGAD      TELAPSE       16.10 TCPU       14.73
 TTTTTTTTTTTTTTTTTTTTTTTTTTTTTT SHELLXN     TELAPSE       16.72 TCPU       15.34
 TTTTTTTTTTTTTTTTTTTTTTTTTTTTTT MONMO3      TELAPSE       16.93 TCPU       15.55
 NUMERICALLY INTEGRATED DENSITY     89.9998303398
 TTTTTTTTTTTTTTTTTTTTTTTTTTTTTT NUMDFT      TELAPSE       17.19 TCPU       15.81
 CYC   9 ETOT(AU) -5.704635486811E+02 DETOT  1.58E-04 tst  7.09E-05 PX  1.12E-02
 TTTTTTTTTTTTTTTTTTTTTTTTTTTTTT DIIS        TELAPSE       17.21 TCPU       15.83
 DIIS TEST: 0.57923E-02 AT SCF   CYCLE   9 - DIIS ACTIVE - HISTORY:     9 CYCLES
 TTTTTTTTTTTTTTTTTTTTTTTTTTTTTT FDIK        TELAPSE       17.39 TCPU       16.00
 INSULATING STATE
 TOP OF VALENCE BANDS -    BAND     45; K    3; EIG -1.8721658E-01 AU
 TOP OF VALENCE BANDS -    BAND     45; K    1; EIG -1.8747910E-01 AU
 BOTTOM OF VIRTUAL BANDS - BAND     46; K    2; EIG -1.8697585E-01 AU
 INDIRECT ENERGY BAND GAP:   0.0066 eV
 BOTTOM OF VIRTUAL BANDS - BAND     46; K    1; EIG -1.8695158E-01 AU
 TTTTTTTTTTTTTTTTTTTTTTTTTTTTTT PDIG        TELAPSE       17.44 TCPU       16.05
 CHARGE NORMALIZATION FACTOR   1.00000000
 TOTAL ATOMIC CHARGES:
   5.9610399   6.0152262   5.9823889   6.0435151   6.0504617   5.9976105
   5.9927842   6.0517783   5.9883132   6.0409943   5.9585232   5.9556199
   5.9453774   5.9915969   6.0247703
 TTTTTTTTTTTTTTTTTTTTTTTTTTTTTT MOQGAD      TELAPSE       17.44 TCPU       16.05
 TTTTTTTTTTTTTTTTTTTTTTTTTTTTTT SHELLXN     TELAPSE       18.06 TCPU       16.67
 TTTTTTTTTTTTTTTTTTTTTTTTTTTTTT MONMO3      TELAPSE       18.26 TCPU       16.88
 NUMERICALLY INTEGRATED DENSITY     89.9998304031
 TTTTTTTTTTTTTTTTTTTTTTTTTTTTTT NUMDFT      TELAPSE       18.64 TCPU       17.26
 CYC  10 ETOT(AU) -5.704640023785E+02 DETOT -4.54E-04 tst  8.95E-05 PX  1.37E-02
 TTTTTTTTTTTTTTTTTTTTTTTTTTTTTT DIIS        TELAPSE       18.66 TCPU       17.28
 DIIS TEST: 0.23107E-02 AT SCF   CYCLE  10 - DIIS ACTIVE - HISTORY:    10 CYCLES
 TTTTTTTTTTTTTTTTTTTTTTTTTTTTTT FDIK        TELAPSE       18.83 TCPU       17.44
 INSULATING STATE
 TOP OF VALENCE BANDS -    BAND     45; K    3; EIG -1.8721948E-01 AU
 TOP OF VALENCE BANDS -    BAND     45; K    1; EIG -1.8733967E-01 AU
 BOTTOM OF VIRTUAL BANDS - BAND     46; K   35; EIG -1.8704809E-01 AU
 INDIRECT ENERGY BAND GAP:   0.0047 eV
 BOTTOM OF VIRTUAL BANDS - BAND     46; K    1; EIG -1.8704809E-01 AU
 TTTTTTTTTTTTTTTTTTTTTTTTTTTTTT PDIG        TELAPSE       18.88 TCPU       17.49
 CHARGE NORMALIZATION FACTOR   1.00000000
 TOTAL ATOMIC CHARGES:
   5.9587923   6.0318950   5.9768797   6.0126824   6.0604019   5.9956817
   5.9981918   6.0364251   5.9949654   6.0458437   5.9578523   5.9594226
   5.9848644   5.9585289   6.0275729
 TTTTTTTTTTTTTTTTTTTTTTTTTTTTTT MOQGAD      TELAPSE       18.88 TCPU       17.49
 TTTTTTTTTTTTTTTTTTTTTTTTTTTTTT SHELLXN     TELAPSE       19.50 TCPU       18.11
 TTTTTTTTTTTTTTTTTTTTTTTTTTTTTT MONMO3      TELAPSE       19.71 TCPU       18.32
 NUMERICALLY INTEGRATED DENSITY     89.9998304289
 TTTTTTTTTTTTTTTTTTTTTTTTTTTTTT NUMDFT      TELAPSE       19.96 TCPU       18.58
 CYC  11 ETOT(AU) -5.704641899528E+02 DETOT -1.88E-04 tst  2.56E-05 PX  9.71E-03
 TTTTTTTTTTTTTTTTTTTTTTTTTTTTTT DIIS        TELAPSE       19.98 TCPU       18.59
 DIIS TEST: 0.88467E-03 AT SCF   CYCLE  11 - DIIS ACTIVE - HISTORY:    11 CYCLES
 TTTTTTTTTTTTTTTTTTTTTTTTTTTTTT FDIK        TELAPSE       20.16 TCPU       18.77
 INSULATING STATE
 TOP OF VALENCE BANDS -    BAND     45; K    3; EIG -1.8712659E-01 AU
 TOP OF VALENCE BANDS -    BAND     45; K    1; EIG -1.8720704E-01 AU
 BOTTOM OF VIRTUAL BANDS - BAND     46; K    1; EIG -1.8711085E-01 AU
 INDIRECT ENERGY BAND GAP:   0.0004 eV
 TTTTTTTTTTTTTTTTTTTTTTTTTTTTTT PDIG        TELAPSE       20.21 TCPU       18.82
 CHARGE NORMALIZATION FACTOR   1.00000000
 TOTAL ATOMIC CHARGES:
   5.9623224   6.0200773   5.9759416   6.0253715   6.0616759   5.9954594
   5.9960330   6.0508846   5.9956104   6.0445394   5.9577233   5.9578237
   5.9652996   5.9634948   6.0277431
 TTTTTTTTTTTTTTTTTTTTTTTTTTTTTT MOQGAD      TELAPSE       20.21 TCPU       18.82
 TTTTTTTTTTTTTTTTTTTTTTTTTTTTTT SHELLXN     TELAPSE       20.83 TCPU       19.44
 TTTTTTTTTTTTTTTTTTTTTTTTTTTTTT MONMO3      TELAPSE       21.04 TCPU       19.65
 NUMERICALLY INTEGRATED DENSITY     89.9998304169
 TTTTTTTTTTTTTTTTTTTTTTTTTTTTTT NUMDFT      TELAPSE       21.29 TCPU       19.90
 CYC  12 ETOT(AU) -5.704642859397E+02 DETOT -9.60E-05 tst  4.62E-06 PX  4.22E-03
 TTTTTTTTTTTTTTTTTTTTTTTTTTTTTT DIIS        TELAPSE       21.31 TCPU       19.92
 DIIS TEST: 0.20520E-03 AT SCF   CYCLE  12 - DIIS ACTIVE - HISTORY:    12 CYCLES
 TTTTTTTTTTTTTTTTTTTTTTTTTTTTTT FDIK        TELAPSE       21.49 TCPU       20.10
 INSULATING STATE
 TOP OF VALENCE BANDS -    BAND     45; K   35; EIG -1.8728292E-01 AU
 TOP OF VALENCE BANDS -    BAND     45; K    1; EIG -1.8728292E-01 AU
 BOTTOM OF VIRTUAL BANDS - BAND     46; K    2; EIG -1.8716894E-01 AU
 INDIRECT ENERGY BAND GAP:   0.0031 eV
 BOTTOM OF VIRTUAL BANDS - BAND     46; K    1; EIG -1.8714071E-01 AU
 TTTTTTTTTTTTTTTTTTTTTTTTTTTTTT PDIG        TELAPSE       21.54 TCPU       20.15
 CHARGE NORMALIZATION FACTOR   1.00000000
 TOTAL ATOMIC CHARGES:
   5.9611287   6.0317834   5.9763719   6.0226770   6.0576849   5.9959799
   5.9958186   6.0402666   5.9831586   6.0487379   5.9581108   5.9581249
   5.9727239   5.9706004   6.0268326
 TTTTTTTTTTTTTTTTTTTTTTTTTTTTTT MOQGAD      TELAPSE       21.54 TCPU       20.15
 TTTTTTTTTTTTTTTTTTTTTTTTTTTTTT SHELLXN     TELAPSE       22.16 TCPU       20.76
 TTTTTTTTTTTTTTTTTTTTTTTTTTTTTT MONMO3      TELAPSE       22.37 TCPU       20.97
 NUMERICALLY INTEGRATED DENSITY     89.9998304725
 TTTTTTTTTTTTTTTTTTTTTTTTTTTTTT NUMDFT      TELAPSE       22.62 TCPU       21.23
 CYC  13 ETOT(AU) -5.704642977176E+02 DETOT -1.18E-05 tst  1.41E-06 PX  3.55E-03
 TTTTTTTTTTTTTTTTTTTTTTTTTTTTTT DIIS        TELAPSE       22.65 TCPU       21.25
 DIIS TEST: 0.14026E-03 AT SCF   CYCLE  13 - DIIS ACTIVE - HISTORY:    13 CYCLES
 TTTTTTTTTTTTTTTTTTTTTTTTTTTTTT FDIK        TELAPSE       22.83 TCPU       21.43
 INSULATING STATE
 TOP OF VALENCE BANDS -    BAND     45; K   35; EIG -1.8728753E-01 AU
 TOP OF VALENCE BANDS -    BAND     45; K    1; EIG -1.8728753E-01 AU
 BOTTOM OF VIRTUAL BANDS - BAND     46; K   35; EIG -1.8718410E-01 AU
 DIRECT ENERGY BAND GAP:   0.0028 eV
 BOTTOM OF VIRTUAL BANDS - BAND     46; K    1; EIG -1.8718410E-01 AU
 TTTTTTTTTTTTTTTTTTTTTTTTTTTTTT PDIG        TELAPSE       22.88 TCPU       21.48
 CHARGE NORMALIZATION FACTOR   1.00000000
 TOTAL ATOMIC CHARGES:
   5.9607714   6.0209638   5.9757293   6.0318001   6.0587543   5.9966727
   5.9961231   6.0483002   5.9852863   6.0404503   5.9579725   5.9575763
   5.9672465   5.9753211   6.0270322
 TTTTTTTTTTTTTTTTTTTTTTTTTTTTTT MOQGAD      TELAPSE       22.88 TCPU       21.48
 TTTTTTTTTTTTTTTTTTTTTTTTTTTTTT SHELLXN     TELAPSE       23.50 TCPU       22.10
 TTTTTTTTTTTTTTTTTTTTTTTTTTTTTT MONMO3      TELAPSE       23.71 TCPU       22.31
 NUMERICALLY INTEGRATED DENSITY     89.9998304804
 TTTTTTTTTTTTTTTTTTTTTTTTTTTTTT NUMDFT      TELAPSE       24.06 TCPU       22.66
 CYC  14 ETOT(AU) -5.704642972781E+02 DETOT  4.40E-07 tst  9.51E-07 PX  2.90E-03
 TTTTTTTTTTTTTTTTTTTTTTTTTTTTTT DIIS        TELAPSE       24.09 TCPU       22.69
 DIIS TEST: 0.11822E-03 AT SCF   CYCLE  14 - DIIS ACTIVE - HISTORY:    14 CYCLES
 TTTTTTTTTTTTTTTTTTTTTTTTTTTTTT FDIK        TELAPSE       24.25 TCPU       22.85
 INSULATING STATE
 TOP OF VALENCE BANDS -    BAND     45; K    1; EIG -1.8724077E-01 AU
 BOTTOM OF VIRTUAL BANDS - BAND     46; K   35; EIG -1.8722686E-01 AU
 INDIRECT ENERGY BAND GAP:   0.0004 eV
 BOTTOM OF VIRTUAL BANDS - BAND     46; K    1; EIG -1.8722686E-01 AU
 TTTTTTTTTTTTTTTTTTTTTTTTTTTTTT PDIG        TELAPSE       24.30 TCPU       22.90
 CHARGE NORMALIZATION FACTOR   1.00000000
 TOTAL ATOMIC CHARGES:
   5.9612484   6.0246988   5.9754616   6.0235870   6.0603875   5.9963918
   5.9963609   6.0449603   5.9918844   6.0460341   5.9575074   5.9575731
   5.9685602   5.9680352   6.0273093
 TTTTTTTTTTTTTTTTTTTTTTTTTTTTTT MOQGAD      TELAPSE       24.30 TCPU       22.90
 TTTTTTTTTTTTTTTTTTTTTTTTTTTTTT SHELLXN     TELAPSE       24.92 TCPU       23.51
 TTTTTTTTTTTTTTTTTTTTTTTTTTTTTT MONMO3      TELAPSE       25.13 TCPU       23.73
 NUMERICALLY INTEGRATED DENSITY     89.9998304521
 TTTTTTTTTTTTTTTTTTTTTTTTTTTTTT NUMDFT      TELAPSE       25.39 TCPU       23.99
 CYC  15 ETOT(AU) -5.704643116703E+02 DETOT -1.44E-05 tst  5.11E-07 PX  2.64E-03
 TTTTTTTTTTTTTTTTTTTTTTTTTTTTTT DIIS        TELAPSE       25.41 TCPU       24.01
 DIIS TEST: 0.22964E-04 AT SCF   CYCLE  15 - DIIS ACTIVE - HISTORY:    15 CYCLES
 TTTTTTTTTTTTTTTTTTTTTTTTTTTTTT FDIK        TELAPSE       29.55 TCPU       28.13
 INSULATING STATE
 TOP OF VALENCE BANDS -    BAND     45; K   35; EIG -1.8724827E-01 AU
 TOP OF VALENCE BANDS -    BAND     45; K    1; EIG -1.8724827E-01 AU
 BOTTOM OF VIRTUAL BANDS - BAND     46; K   35; EIG -1.8719414E-01 AU
 DIRECT ENERGY BAND GAP:   0.0015 eV
 BOTTOM OF VIRTUAL BANDS - BAND     46; K    1; EIG -1.8719414E-01 AU
 TTTTTTTTTTTTTTTTTTTTTTTTTTTTTT PDIG        TELAPSE       29.60 TCPU       28.18
 CHARGE NORMALIZATION FACTOR   1.00000000
 TOTAL ATOMIC CHARGES:
   5.9610820   6.0248840   5.9756615   6.0236809   6.0606977   5.9960188
   5.9962178   6.0449705   5.9904624   6.0453964   5.9578306   5.9579326
   5.9699434   5.9679937   6.0272276
 TTTTTTTTTTTTTTTTTTTTTTTTTTTTTT MOQGAD      TELAPSE       29.60 TCPU       28.18
 TTTTTTTTTTTTTTTTTTTTTTTTTTTTTT SHELLXN     TELAPSE       30.22 TCPU       28.80
 TTTTTTTTTTTTTTTTTTTTTTTTTTTTTT MONMO3      TELAPSE       30.43 TCPU       29.01
 NUMERICALLY INTEGRATED DENSITY     89.9998304558
 TTTTTTTTTTTTTTTTTTTTTTTTTTTTTT NUMDFT      TELAPSE       30.69 TCPU       29.27
 CYC  16 ETOT(AU) -5.704643134118E+02 DETOT -1.74E-06 tst  1.65E-07 PX  2.46E-04
 TTTTTTTTTTTTTTTTTTTTTTTTTTTTTT DIIS        TELAPSE       30.71 TCPU       29.29
 DIIS TEST: 0.11959E-04 AT SCF   CYCLE  16 - DIIS ACTIVE - HISTORY:    16 CYCLES
 TTTTTTTTTTTTTTTTTTTTTTTTTTTTTT FDIK        TELAPSE       30.97 TCPU       29.53
 INSULATING STATE
 TOP OF VALENCE BANDS -    BAND     45; K    1; EIG -1.8724424E-01 AU
 BOTTOM OF VIRTUAL BANDS - BAND     46; K    1; EIG -1.8717461E-01 AU
 DIRECT ENERGY BAND GAP:   0.0019 eV
 TTTTTTTTTTTTTTTTTTTTTTTTTTTTTT PDIG        TELAPSE       31.01 TCPU       29.58
 CHARGE NORMALIZATION FACTOR   1.00000000
 TOTAL ATOMIC CHARGES:
   5.9613574   6.0250829   5.9756910   6.0244177   6.0604086   5.9962887
   5.9963321   6.0446074   5.9902423   6.0452475   5.9576115   5.9577186
   5.9692107   5.9685325   6.0272512
 TTTTTTTTTTTTTTTTTTTTTTTTTTTTTT MOQGAD      TELAPSE       31.01 TCPU       29.58
 TTTTTTTTTTTTTTTTTTTTTTTTTTTTTT SHELLXN     TELAPSE       31.63 TCPU       30.20
 TTTTTTTTTTTTTTTTTTTTTTTTTTTTTT MONMO3      TELAPSE       31.84 TCPU       30.41
 NUMERICALLY INTEGRATED DENSITY     89.9998304549
 TTTTTTTTTTTTTTTTTTTTTTTTTTTTTT NUMDFT      TELAPSE       32.10 TCPU       30.66
 CYC  17 ETOT(AU) -5.704643143010E+02 DETOT -8.89E-07 tst  2.67E-08 PX  1.62E-04
 TTTTTTTTTTTTTTTTTTTTTTTTTTTTTT DIIS        TELAPSE       32.12 TCPU       30.69
 DIIS TEST: 0.51529E-05 AT SCF   CYCLE  17 - DIIS ACTIVE - HISTORY:    17 CYCLES
 TTTTTTTTTTTTTTTTTTTTTTTTTTTTTT FDIK        TELAPSE       32.30 TCPU       30.87
 INSULATING STATE
 TOP OF VALENCE BANDS -    BAND     45; K   35; EIG -1.8724908E-01 AU
 TOP OF VALENCE BANDS -    BAND     45; K    1; EIG -1.8724908E-01 AU
 BOTTOM OF VIRTUAL BANDS - BAND     46; K    1; EIG -1.8716508E-01 AU
 INDIRECT ENERGY BAND GAP:   0.0023 eV
 TTTTTTTTTTTTTTTTTTTTTTTTTTTTTT PDIG        TELAPSE       32.35 TCPU       30.92
 CHARGE NORMALIZATION FACTOR   1.00000000
 TOTAL ATOMIC CHARGES:
   5.9611782   6.0249294   5.9758188   6.0243808   6.0605657   5.9961695
   5.9961643   6.0450260   5.9897756   6.0452756   5.9579130   5.9578237
   5.9690213   5.9688299   6.0271281
 TTTTTTTTTTTTTTTTTTTTTTTTTTTTTT MOQGAD      TELAPSE       32.35 TCPU       30.92
 TTTTTTTTTTTTTTTTTTTTTTTTTTTTTT SHELLXN     TELAPSE       32.97 TCPU       31.53
 TTTTTTTTTTTTTTTTTTTTTTTTTTTTTT MONMO3      TELAPSE       33.18 TCPU       31.74
 NUMERICALLY INTEGRATED DENSITY     89.9998304554
 TTTTTTTTTTTTTTTTTTTTTTTTTTTTTT NUMDFT      TELAPSE       33.55 TCPU       32.11
 CYC  18 ETOT(AU) -5.704643146100E+02 DETOT -3.09E-07 tst  5.81E-09 PX  9.06E-05
 TTTTTTTTTTTTTTTTTTTTTTTTTTTTTT DIIS        TELAPSE       33.57 TCPU       32.13
 DIIS TEST: 0.29412E-05 AT SCF   CYCLE  18 - DIIS ACTIVE - HISTORY:    18 CYCLES
 TTTTTTTTTTTTTTTTTTTTTTTTTTTTTT FDIK        TELAPSE       33.74 TCPU       32.30
 INSULATING STATE
 TOP OF VALENCE BANDS -    BAND     45; K    1; EIG -1.8725379E-01 AU
 BOTTOM OF VIRTUAL BANDS - BAND     46; K   35; EIG -1.8715956E-01 AU
 INDIRECT ENERGY BAND GAP:   0.0026 eV
 BOTTOM OF VIRTUAL BANDS - BAND     46; K    1; EIG -1.8715956E-01 AU
 TTTTTTTTTTTTTTTTTTTTTTTTTTTTTT PDIG        TELAPSE       33.79 TCPU       32.35
 CHARGE NORMALIZATION FACTOR   1.00000000
 TOTAL ATOMIC CHARGES:
   5.9612361   6.0249371   5.9757876   6.0247722   6.0603933   5.9961411
   5.9961890   6.0447989   5.9895702   6.0451466   5.9577622   5.9579211
   5.9692938   5.9688335   6.0272172
 TTTTTTTTTTTTTTTTTTTTTTTTTTTTTT MOQGAD      TELAPSE       33.79 TCPU       32.35
 TTTTTTTTTTTTTTTTTTTTTTTTTTTTTT SHELLXN     TELAPSE       34.41 TCPU       32.96
 TTTTTTTTTTTTTTTTTTTTTTTTTTTTTT MONMO3      TELAPSE       34.62 TCPU       33.18
 NUMERICALLY INTEGRATED DENSITY     89.9998304567
 TTTTTTTTTTTTTTTTTTTTTTTTTTTTTT NUMDFT      TELAPSE       34.88 TCPU       33.43
 CYC  19 ETOT(AU) -5.704643147918E+02 DETOT -1.82E-07 tst  2.43E-09 PX  4.73E-05
 TTTTTTTTTTTTTTTTTTTTTTTTTTTTTT DIIS        TELAPSE       34.90 TCPU       33.46
 DIIS TEST: 0.16448E-05 AT SCF   CYCLE  19 - DIIS ACTIVE - HISTORY:    19 CYCLES
 TTTTTTTTTTTTTTTTTTTTTTTTTTTTTT FDIK        TELAPSE       35.08 TCPU       33.63
 INSULATING STATE
 TOP OF VALENCE BANDS -    BAND     45; K    1; EIG -1.8725678E-01 AU
 BOTTOM OF VIRTUAL BANDS - BAND     46; K   35; EIG -1.8715468E-01 AU
 INDIRECT ENERGY BAND GAP:   0.0028 eV
 BOTTOM OF VIRTUAL BANDS - BAND     46; K    1; EIG -1.8715468E-01 AU
 TTTTTTTTTTTTTTTTTTTTTTTTTTTTTT PDIG        TELAPSE       35.13 TCPU       33.68
 CHARGE NORMALIZATION FACTOR   1.00000000
 TOTAL ATOMIC CHARGES:
   5.9609400   6.0271338   5.9754881   6.0265544   6.0600837   5.9962033
   5.9962545   6.0450626   5.9834430   6.0452442   5.9579406   5.9578925
   5.9705798   5.9699692   6.0272103
 TTTTTTTTTTTTTTTTTTTTTTTTTTTTTT MOQGAD      TELAPSE       35.13 TCPU       33.68
 TTTTTTTTTTTTTTTTTTTTTTTTTTTTTT SHELLXN     TELAPSE       35.75 TCPU       34.30
 TTTTTTTTTTTTTTTTTTTTTTTTTTTTTT MONMO3      TELAPSE       35.96 TCPU       34.51
 NUMERICALLY INTEGRATED DENSITY     89.9998304782
 TTTTTTTTTTTTTTTTTTTTTTTTTTTTTT NUMDFT      TELAPSE       36.22 TCPU       34.77
 CYC  20 ETOT(AU) -5.704643096894E+02 DETOT  5.10E-06 tst  2.02E-09 PX  3.01E-03
 TTTTTTTTTTTTTTTTTTTTTTTTTTTTTT DIIS        TELAPSE       36.24 TCPU       34.79
 DIIS TEST: 0.51097E-04 AT SCF   CYCLE  20 - DIIS ACTIVE - HISTORY:    20 CYCLES
 TTTTTTTTTTTTTTTTTTTTTTTTTTTTTT FDIK        TELAPSE       36.42 TCPU       34.97
 INSULATING STATE
 TOP OF VALENCE BANDS -    BAND     45; K   35; EIG -1.8725380E-01 AU
 TOP OF VALENCE BANDS -    BAND     45; K    1; EIG -1.8725380E-01 AU
 BOTTOM OF VIRTUAL BANDS - BAND     46; K   35; EIG -1.8716621E-01 AU
 DIRECT ENERGY BAND GAP:   0.0024 eV
 BOTTOM OF VIRTUAL BANDS - BAND     46; K    1; EIG -1.8716621E-01 AU
 TTTTTTTTTTTTTTTTTTTTTTTTTTTTTT PDIG        TELAPSE       36.47 TCPU       35.01
 CHARGE NORMALIZATION FACTOR   1.00000000
 TOTAL ATOMIC CHARGES:
   5.9612763   6.0249063   5.9757187   6.0247462   6.0603172   5.9961746
   5.9961872   6.0449223   5.9897288   6.0449603   5.9578692   5.9578337
   5.9691282   5.9690154   6.0272156
 TTTTTTTTTTTTTTTTTTTTTTTTTTTTTT MOQGAD      TELAPSE       36.47 TCPU       35.01
 TTTTTTTTTTTTTTTTTTTTTTTTTTTTTT SHELLXN     TELAPSE       37.09 TCPU       35.63
 TTTTTTTTTTTTTTTTTTTTTTTTTTTTTT MONMO3      TELAPSE       37.29 TCPU       35.84
 NUMERICALLY INTEGRATED DENSITY     89.9998304570
 TTTTTTTTTTTTTTTTTTTTTTTTTTTTTT NUMDFT      TELAPSE       37.55 TCPU       36.10
 CYC  21 ETOT(AU) -5.704643147449E+02 DETOT -5.06E-06 tst  4.97E-09 PX  3.02E-03
 TTTTTTTTTTTTTTTTTTTTTTTTTTTTTT DIIS        TELAPSE       37.58 TCPU       36.12
 DIIS TEST: 0.19394E-05 AT SCF   CYCLE  21 - DIIS ACTIVE - HISTORY:    21 CYCLES
 TTTTTTTTTTTTTTTTTTTTTTTTTTTTTT FDIK        TELAPSE       37.76 TCPU       36.30
 INSULATING STATE
 TOP OF VALENCE BANDS -    BAND     45; K   35; EIG -1.8725528E-01 AU
 TOP OF VALENCE BANDS -    BAND     45; K    1; EIG -1.8725528E-01 AU
 BOTTOM OF VIRTUAL BANDS - BAND     46; K   35; EIG -1.8716172E-01 AU
 DIRECT ENERGY BAND GAP:   0.0025 eV
 BOTTOM OF VIRTUAL BANDS - BAND     46; K    1; EIG -1.8716172E-01 AU
 TTTTTTTTTTTTTTTTTTTTTTTTTTTTTT PDIG        TELAPSE       37.81 TCPU       36.35
 CHARGE NORMALIZATION FACTOR   1.00000000
 TOTAL ATOMIC CHARGES:
   5.9612232   6.0248535   5.9757296   6.0248569   6.0603550   5.9962143
   5.9962104   6.0449779   5.9895533   6.0450023   5.9578309   5.9578293
   5.9690848   5.9690816   6.0271969
 TTTTTTTTTTTTTTTTTTTTTTTTTTTTTT MOQGAD      TELAPSE       37.81 TCPU       36.35
 TTTTTTTTTTTTTTTTTTTTTTTTTTTTTT SHELLXN     TELAPSE       38.43 TCPU       36.97
 TTTTTTTTTTTTTTTTTTTTTTTTTTTTTT MONMO3      TELAPSE       38.64 TCPU       37.18
 NUMERICALLY INTEGRATED DENSITY     89.9998304573
 TTTTTTTTTTTTTTTTTTTTTTTTTTTTTT NUMDFT      TELAPSE       38.89 TCPU       37.43
 CYC  22 ETOT(AU) -5.704643148346E+02 DETOT -8.97E-08 tst  9.28E-10 PX  3.46E-05
 TTTTTTTTTTTTTTTTTTTTTTTTTTTTTT DIIS        TELAPSE       38.92 TCPU       37.46
 DIIS TEST: 0.13113E-05 AT SCF   CYCLE  22 - DIIS ACTIVE - HISTORY:    22 CYCLES
 TTTTTTTTTTTTTTTTTTTTTTTTTTTTTT FDIK        TELAPSE       39.10 TCPU       37.63
 INSULATING STATE
 TOP OF VALENCE BANDS -    BAND     45; K   35; EIG -1.8725591E-01 AU
 TOP OF VALENCE BANDS -    BAND     45; K    1; EIG -1.8725591E-01 AU
 BOTTOM OF VIRTUAL BANDS - BAND     46; K   35; EIG -1.8715918E-01 AU
 DIRECT ENERGY BAND GAP:   0.0026 eV
 BOTTOM OF VIRTUAL BANDS - BAND     46; K    1; EIG -1.8715918E-01 AU
 TTTTTTTTTTTTTTTTTTTTTTTTTTTTTT PDIG        TELAPSE       39.15 TCPU       37.69
 CHARGE NORMALIZATION FACTOR   1.00000000
 TOTAL ATOMIC CHARGES:
   5.9612331   6.0248656   5.9757258   6.0249007   6.0603571   5.9962014
   5.9961964   6.0449935   5.9894667   6.0449878   5.9578375   5.9578325
   5.9690780   5.9691132   6.0272107
 TTTTTTTTTTTTTTTTTTTTTTTTTTTTTT MOQGAD      TELAPSE       39.15 TCPU       37.69
 TTTTTTTTTTTTTTTTTTTTTTTTTTTTTT SHELLXN     TELAPSE       39.76 TCPU       38.30
 TTTTTTTTTTTTTTTTTTTTTTTTTTTTTT MONMO3      TELAPSE       39.98 TCPU       38.51
 NUMERICALLY INTEGRATED DENSITY     89.9998304575
 TTTTTTTTTTTTTTTTTTTTTTTTTTTTTT NUMDFT      TELAPSE       40.35 TCPU       38.89
 CYC  23 ETOT(AU) -5.704643148737E+02 DETOT -3.91E-08 tst  2.37E-10 PX  1.27E-05
 TTTTTTTTTTTTTTTTTTTTTTTTTTTTTT DIIS        TELAPSE       40.38 TCPU       38.92
 DIIS TEST: 0.10388E-05 AT SCF   CYCLE  23 - DIIS ACTIVE - HISTORY:    23 CYCLES
 TTTTTTTTTTTTTTTTTTTTTTTTTTTTTT FDIK        TELAPSE       40.55 TCPU       39.08
 INSULATING STATE
 TOP OF VALENCE BANDS -    BAND     45; K    1; EIG -1.8725630E-01 AU
 BOTTOM OF VIRTUAL BANDS - BAND     46; K   35; EIG -1.8715832E-01 AU
 INDIRECT ENERGY BAND GAP:   0.0027 eV
 BOTTOM OF VIRTUAL BANDS - BAND     46; K    1; EIG -1.8715832E-01 AU
 TTTTTTTTTTTTTTTTTTTTTTTTTTTTTT PDIG        TELAPSE       40.60 TCPU       39.13
 CHARGE NORMALIZATION FACTOR   1.00000000
 TOTAL ATOMIC CHARGES:
   5.9612345   6.0248734   5.9757249   6.0249125   6.0603547   5.9962042
   5.9961996   6.0449963   5.9894339   6.0449888   5.9578399   5.9578340
   5.9690846   5.9691158   6.0272028
 TTTTTTTTTTTTTTTTTTTTTTTTTTTTTT MOQGAD      TELAPSE       40.60 TCPU       39.13
 TTTTTTTTTTTTTTTTTTTTTTTTTTTTTT SHELLXN     TELAPSE       41.21 TCPU       39.75
 TTTTTTTTTTTTTTTTTTTTTTTTTTTTTT MONMO3      TELAPSE       41.43 TCPU       39.96
 NUMERICALLY INTEGRATED DENSITY     89.9998304575
 TTTTTTTTTTTTTTTTTTTTTTTTTTTTTT NUMDFT      TELAPSE       41.68 TCPU       40.22
 CYC  24 ETOT(AU) -5.704643148879E+02 DETOT -1.42E-08 tst  3.49E-11 PX  4.80E-06
 TTTTTTTTTTTTTTTTTTTTTTTTTTTTTT DIIS        TELAPSE       41.71 TCPU       40.24
 DIIS TEST: 0.94011E-06 AT SCF   CYCLE  24 - DIIS ACTIVE - HISTORY:    24 CYCLES
 TTTTTTTTTTTTTTTTTTTTTTTTTTTTTT FDIK        TELAPSE       41.89 TCPU       40.42
 INSULATING STATE
 TOP OF VALENCE BANDS -    BAND     45; K   35; EIG -1.8725726E-01 AU
 TOP OF VALENCE BANDS -    BAND     45; K    1; EIG -1.8725726E-01 AU
 BOTTOM OF VIRTUAL BANDS - BAND     46; K   35; EIG -1.8715671E-01 AU
 DIRECT ENERGY BAND GAP:   0.0027 eV
 BOTTOM OF VIRTUAL BANDS - BAND     46; K    1; EIG -1.8715671E-01 AU
 TTTTTTTTTTTTTTTTTTTTTTTTTTTTTT PDIG        TELAPSE       41.94 TCPU       40.47
 CHARGE NORMALIZATION FACTOR   1.00000000
 TOTAL ATOMIC CHARGES:
   5.9609256   6.0267637   5.9754580   6.0268349   6.0600910   5.9962183
   5.9962104   6.0452279   5.9834269   6.0451989   5.9579482   5.9579413
   5.9702394   5.9703112   6.0272042
 TTTTTTTTTTTTTTTTTTTTTTTTTTTTTT MOQGAD      TELAPSE       41.94 TCPU       40.47
 TTTTTTTTTTTTTTTTTTTTTTTTTTTTTT SHELLXN     TELAPSE       42.56 TCPU       41.09
 TTTTTTTTTTTTTTTTTTTTTTTTTTTTTT MONMO3      TELAPSE       42.77 TCPU       41.30
 NUMERICALLY INTEGRATED DENSITY     89.9998304789
 TTTTTTTTTTTTTTTTTTTTTTTTTTTTTT NUMDFT      TELAPSE       43.03 TCPU       41.55
 CYC  25 ETOT(AU) -5.704643097767E+02 DETOT  5.11E-06 tst  1.47E-10 PX  2.99E-03
 TTTTTTTTTTTTTTTTTTTTTTTTTTTTTT DIIS        TELAPSE       43.05 TCPU       41.58
 DIIS TEST: 0.50472E-04 AT SCF   CYCLE  25 - DIIS ACTIVE - HISTORY:    25 CYCLES
 TTTTTTTTTTTTTTTTTTTTTTTTTTTTTT FDIK        TELAPSE       43.24 TCPU       41.76
 INSULATING STATE
 TOP OF VALENCE BANDS -    BAND     45; K   35; EIG -1.8725602E-01 AU
 TOP OF VALENCE BANDS -    BAND     45; K    1; EIG -1.8725602E-01 AU
 BOTTOM OF VIRTUAL BANDS - BAND     46; K   35; EIG -1.8715882E-01 AU
 DIRECT ENERGY BAND GAP:   0.0026 eV
 BOTTOM OF VIRTUAL BANDS - BAND     46; K    1; EIG -1.8715882E-01 AU
 TTTTTTTTTTTTTTTTTTTTTTTTTTTTTT PDIG        TELAPSE       43.29 TCPU       41.81
 CHARGE NORMALIZATION FACTOR   1.00000000
 TOTAL ATOMIC CHARGES:
   5.9612324   6.0248806   5.9757271   6.0248928   6.0603546   5.9962024
   5.9961998   6.0449902   5.9894517   6.0449952   5.9578371   5.9578328
   5.9690979   5.9690979   6.0272075
 TTTTTTTTTTTTTTTTTTTTTTTTTTTTTT MOQGAD      TELAPSE       43.29 TCPU       41.81
 TTTTTTTTTTTTTTTTTTTTTTTTTTTTTT SHELLXN     TELAPSE       43.91 TCPU       42.43
 TTTTTTTTTTTTTTTTTTTTTTTTTTTTTT MONMO3      TELAPSE       44.12 TCPU       42.64
 NUMERICALLY INTEGRATED DENSITY     89.9998304575
 TTTTTTTTTTTTTTTTTTTTTTTTTTTTTT NUMDFT      TELAPSE       44.39 TCPU       42.91
 CYC  26 ETOT(AU) -5.704643148798E+02 DETOT -5.10E-06 tst  2.60E-10 PX  3.00E-03
 TTTTTTTTTTTTTTTTTTTTTTTTTTTTTT DIIS        TELAPSE       44.42 TCPU       42.94
 DIIS TEST: 0.99576E-06 AT SCF   CYCLE  26 - DIIS ACTIVE - HISTORY:    26 CYCLES
 TTTTTTTTTTTTTTTTTTTTTTTTTTTTTT FDIK        TELAPSE       44.60 TCPU       43.11
 INSULATING STATE
 TOP OF VALENCE BANDS -    BAND     45; K   35; EIG -1.8725626E-01 AU
 TOP OF VALENCE BANDS -    BAND     45; K    1; EIG -1.8725626E-01 AU
 BOTTOM OF VIRTUAL BANDS - BAND     46; K   35; EIG -1.8715834E-01 AU
 DIRECT ENERGY BAND GAP:   0.0027 eV
 BOTTOM OF VIRTUAL BANDS - BAND     46; K    1; EIG -1.8715834E-01 AU
 TTTTTTTTTTTTTTTTTTTTTTTTTTTTTT PDIG        TELAPSE       44.65 TCPU       43.16
 CHARGE NORMALIZATION FACTOR   1.00000000
 TOTAL ATOMIC CHARGES:
   5.9612318   6.0248873   5.9757265   6.0248977   6.0603549   5.9962018
   5.9962005   6.0449903   5.9894328   6.0449967   5.9578374   5.9578335
   5.9691008   5.9691009   6.0272070
 TTTTTTTTTTTTTTTTTTTTTTTTTTTTTT MOQGAD      TELAPSE       44.65 TCPU       43.16
 TTTTTTTTTTTTTTTTTTTTTTTTTTTTTT SHELLXN     TELAPSE       45.28 TCPU       43.78
 TTTTTTTTTTTTTTTTTTTTTTTTTTTTTT MONMO3      TELAPSE       45.48 TCPU       43.98
 NUMERICALLY INTEGRATED DENSITY     89.9998304575
 TTTTTTTTTTTTTTTTTTTTTTTTTTTTTT NUMDFT      TELAPSE       45.74 TCPU       44.24
 CYC  27 ETOT(AU) -5.704643148878E+02 DETOT -8.01E-09 tst  1.13E-11 PX  2.79E-06
 TTTTTTTTTTTTTTTTTTTTTTTTTTTTTT DIIS        TELAPSE       45.77 TCPU       44.27
 DIIS TEST: 0.94034E-06 AT SCF   CYCLE  27 - DIIS ACTIVE - HISTORY:    27 CYCLES
 TTTTTTTTTTTTTTTTTTTTTTTTTTTTTT FDIK        TELAPSE       45.95 TCPU       44.45
 INSULATING STATE
 TOP OF VALENCE BANDS -    BAND     45; K   35; EIG -1.8725638E-01 AU
 TOP OF VALENCE BANDS -    BAND     45; K    1; EIG -1.8725638E-01 AU
 BOTTOM OF VIRTUAL BANDS - BAND     46; K   35; EIG -1.8715809E-01 AU
 DIRECT ENERGY BAND GAP:   0.0027 eV
 BOTTOM OF VIRTUAL BANDS - BAND     46; K    1; EIG -1.8715809E-01 AU
 TTTTTTTTTTTTTTTTTTTTTTTTTTTTTT PDIG        TELAPSE       46.00 TCPU       44.50
 CHARGE NORMALIZATION FACTOR   1.00000000
 TOTAL ATOMIC CHARGES:
   5.9612313   6.0248906   5.9757264   6.0249009   6.0603548   5.9962021
   5.9962001   6.0449904   5.9894230   6.0449972   5.9578378   5.9578336
   5.9691029   5.9691018   6.0272069
 TTTTTTTTTTTTTTTTTTTTTTTTTTTTTT MOQGAD      TELAPSE       46.00 TCPU       44.50
 TTTTTTTTTTTTTTTTTTTTTTTTTTTTTT SHELLXN     TELAPSE       46.62 TCPU       45.12
 TTTTTTTTTTTTTTTTTTTTTTTTTTTTTT MONMO3      TELAPSE       46.83 TCPU       45.33
 NUMERICALLY INTEGRATED DENSITY     89.9998304575
 TTTTTTTTTTTTTTTTTTTTTTTTTTTTTT NUMDFT      TELAPSE       47.08 TCPU       45.58
 CYC  28 ETOT(AU) -5.704643148919E+02 DETOT -4.08E-09 tst  3.09E-12 PX  1.43E-06
 TTTTTTTTTTTTTTTTTTTTTTTTTTTTTT DIIS        TELAPSE       47.11 TCPU       45.61
 DIIS TEST: 0.91211E-06 AT SCF   CYCLE  28 - DIIS ACTIVE - HISTORY:    28 CYCLES
 TTTTTTTTTTTTTTTTTTTTTTTTTTTTTT FDIK        TELAPSE       47.30 TCPU       45.79
 INSULATING STATE
 TOP OF VALENCE BANDS -    BAND     45; K   35; EIG -1.8725659E-01 AU
 TOP OF VALENCE BANDS -    BAND     45; K    1; EIG -1.8725659E-01 AU
 BOTTOM OF VIRTUAL BANDS - BAND     46; K    1; EIG -1.8715768E-01 AU
 INDIRECT ENERGY BAND GAP:   0.0027 eV
 TTTTTTTTTTTTTTTTTTTTTTTTTTTTTT PDIG        TELAPSE       47.35 TCPU       45.84
 CHARGE NORMALIZATION FACTOR   1.00000000
 TOTAL ATOMIC CHARGES:
   5.9612305   6.0248966   5.9757263   6.0249058   6.0603546   5.9962020
   5.9962001   6.0449907   5.9894068   6.0449980   5.9578380   5.9578341
   5.9691060   5.9691037   6.0272066
 TTTTTTTTTTTTTTTTTTTTTTTTTTTTTT MOQGAD      TELAPSE       47.35 TCPU       45.84
 TTTTTTTTTTTTTTTTTTTTTTTTTTTTTT SHELLXN     TELAPSE       47.96 TCPU       46.46
 TTTTTTTTTTTTTTTTTTTTTTTTTTTTTT MONMO3      TELAPSE       48.18 TCPU       46.67
 NUMERICALLY INTEGRATED DENSITY     89.9998304576
 TTTTTTTTTTTTTTTTTTTTTTTTTTTTTT NUMDFT      TELAPSE       48.43 TCPU       46.93
 CYC  29 ETOT(AU) -5.704643148986E+02 DETOT -6.71E-09 tst  8.62E-12 PX  2.39E-06
 TTTTTTTTTTTTTTTTTTTTTTTTTTTTTT DIIS        TELAPSE       48.46 TCPU       46.96
 DIIS TEST: 0.86584E-06 AT SCF   CYCLE  29 - DIIS ACTIVE - HISTORY:    29 CYCLES
 TTTTTTTTTTTTTTTTTTTTTTTTTTTTTT FDIK        TELAPSE       48.65 TCPU       47.14
 INSULATING STATE
 TOP OF VALENCE BANDS -    BAND     45; K    1; EIG -1.8725679E-01 AU
 BOTTOM OF VIRTUAL BANDS - BAND     46; K    1; EIG -1.8715731E-01 AU
 DIRECT ENERGY BAND GAP:   0.0027 eV
 TTTTTTTTTTTTTTTTTTTTTTTTTTTTTT PDIG        TELAPSE       48.70 TCPU       47.19
 CHARGE NORMALIZATION FACTOR   1.00000000
 TOTAL ATOMIC CHARGES:
   5.9612297   6.0249018   5.9757263   6.0249107   6.0603544   5.9962019
   5.9962001   6.0449911   5.9893921   6.0449986   5.9578385   5.9578344
   5.9691084   5.9691057   6.0272064
 TTTTTTTTTTTTTTTTTTTTTTTTTTTTTT MOQGAD      TELAPSE       48.70 TCPU       47.19
 TTTTTTTTTTTTTTTTTTTTTTTTTTTTTT SHELLXN     TELAPSE       49.32 TCPU       47.81
 TTTTTTTTTTTTTTTTTTTTTTTTTTTTTT MONMO3      TELAPSE       49.53 TCPU       48.02
 NUMERICALLY INTEGRATED DENSITY     89.9998304576
 TTTTTTTTTTTTTTTTTTTTTTTTTTTTTT NUMDFT      TELAPSE       49.90 TCPU       48.39
 CYC  30 ETOT(AU) -5.704643149046E+02 DETOT -5.94E-09 tst  7.04E-12 PX  2.16E-06
 TTTTTTTTTTTTTTTTTTTTTTTTTTTTTT DIIS        TELAPSE       49.93 TCPU       48.42
 DIIS TEST: 0.82497E-06 AT SCF   CYCLE  30 - DIIS ACTIVE - HISTORY:    30 CYCLES
 TTTTTTTTTTTTTTTTTTTTTTTTTTTTTT FDIK        TELAPSE       50.11 TCPU       48.59
 INSULATING STATE
 TOP OF VALENCE BANDS -    BAND     45; K   35; EIG -1.8725707E-01 AU
 TOP OF VALENCE BANDS -    BAND     45; K    1; EIG -1.8725707E-01 AU
 BOTTOM OF VIRTUAL BANDS - BAND     46; K   35; EIG -1.8715677E-01 AU
 DIRECT ENERGY BAND GAP:   0.0027 eV
[...]

aborting job:
application called MPI_Abort(MPI_COMM_WORLD, 1) - process 30
MPICH ERROR [Rank 92] [job id 2541589.15] [Mon Oct 31 23:02:16 2022] [nid005741] - Abort(1) (rank 92 in comm 0): application called MPI_Abort(MPI_COMM_WORLD, 1) - process 92

aborting job:
application called MPI_Abort(MPI_COMM_WORLD, 1) - process 92
MPICH ERROR [Rank 95] [job id 2541589.15] [Mon Oct 31 23:02:16 2022] [nid005741] - Abort(1) (rank 95 in comm 0): application called MPI_Abort(MPI_COMM_WORLD, 1) - process 95

aborting job:
application called MPI_Abort(MPI_COMM_WORLD, 1) - process 95
MPICH ERROR [Rank 57] [job id 2541589.15] [Mon Oct 31 23:02:16 2022] [nid005741] - Abort(1) (rank 57 in comm 0): application called MPI_Abort(MPI_COMM_WORLD, 1) - process 57

aborting job:
application called MPI_Abort(MPI_COMM_WORLD, 1) - process 57
MPICH ERROR [Rank 49] [job id 2541589.15] [Mon Oct 31 23:02:16 2022] [nid005741] - Abort(1) (rank 49 in comm 0): application called MPI_Abort(MPI_COMM_WORLD, 1) - process 49

aborting job:
application called MPI_Abort(MPI_COMM_WORLD, 1) - process 49
MPICH ERROR [Rank 4] [job id 2541589.15] [Mon Oct 31 23:02:16 2022] [nid005741] - Abort(1) (rank 4 in comm 0): application called MPI_Abort(MPI_COMM_WORLD, 1) - process 4

aborting job:
application called MPI_Abort(MPI_COMM_WORLD, 1) - process 4
MPICH ERROR [Rank 61] [job id 2541589.15] [Mon Oct 31 23:02:16 2022] [nid005741] - Abort(1) (rank 61 in comm 0): application called MPI_Abort(MPI_COMM_WORLD, 1) - process 61

aborting job:
application called MPI_Abort(MPI_COMM_WORLD, 1) - process 61
MPICH ERROR [Rank 22] [job id 2541589.15] [Mon Oct 31 23:02:16 2022] [nid005741] - Abort(1) (rank 22 in comm 0): application called MPI_Abort(MPI_COMM_WORLD, 1) - process 22

aborting job:
application called MPI_Abort(MPI_COMM_WORLD, 1) - process 22
MPICH ERROR [Rank 54] [job id 2541589.15] [Mon Oct 31 23:02:16 2022] [nid005741] - Abort(1) (rank 54 in comm 0): application called MPI_Abort(MPI_COMM_WORLD, 1) - process 54

aborting job:
application called MPI_Abort(MPI_COMM_WORLD, 1) - process 54
MPICH ERROR [Rank 17] [job id 2541589.15] [Mon Oct 31 23:02:16 2022] [nid005741] - Abort(1) (rank 17 in comm 0): application called MPI_Abort(MPI_COMM_WORLD, 1) - process 17

aborting job:
application called MPI_Abort(MPI_COMM_WORLD, 1) - process 17
MPICH ERROR [Rank 48] [job id 2541589.15] [Mon Oct 31 23:02:16 2022] [nid005741] - Abort(1) (rank 48 in comm 0): application called MPI_Abort(MPI_COMM_WORLD, 1) - process 48

aborting job:
application called MPI_Abort(MPI_COMM_WORLD, 1) - process 48
MPICH ERROR [Rank 2] [job id 2541589.15] [Mon Oct 31 23:02:16 2022] [nid005741] - Abort(1) (rank 2 in comm 0): application called MPI_Abort(MPI_COMM_WORLD, 1) - process 2

aborting job:
application called MPI_Abort(MPI_COMM_WORLD, 1) - process 2
MPICH ERROR [Rank 75] [job id 2541589.15] [Mon Oct 31 23:02:16 2022] [nid005741] - Abort(1) (rank 75 in comm 0): application called MPI_Abort(MPI_COMM_WORLD, 1) - process 75

aborting job:
application called MPI_Abort(MPI_COMM_WORLD, 1) - process 75
MPICH ERROR [Rank 26] [job id 2541589.15] [Mon Oct 31 23:02:16 2022] [nid005741] - Abort(1) (rank 26 in comm 0): application called MPI_Abort(MPI_COMM_WORLD, 1) - process 26

aborting job:
application called MPI_Abort(MPI_COMM_WORLD, 1) - process 26
MPICH ERROR [Rank 70] [job id 2541589.15] [Mon Oct 31 23:02:16 2022] [nid005741] - Abort(1) (rank 70 in comm 0): application called MPI_Abort(MPI_COMM_WORLD, 1) - process 70

aborting job:
application called MPI_Abort(MPI_COMM_WORLD, 1) - process 70
MPICH ERROR [Rank 116] [job id 2541589.15] [Mon Oct 31 23:02:16 2022] [nid005741] - Abort(1) (rank 116 in comm 0): application called MPI_Abort(MPI_COMM_WORLD, 1) - process 116

aborting job:
application called MPI_Abort(MPI_COMM_WORLD, 1) - process 116
MPICH ERROR [Rank 123] [job id 2541589.15] [Mon Oct 31 23:02:16 2022] [nid005741] - Abort(1) (rank 123 in comm 0): application called MPI_Abort(MPI_COMM_WORLD, 1) - process 123

aborting job:
application called MPI_Abort(MPI_COMM_WORLD, 1) - process 123
MPICH ERROR [Rank 5] [job id 2541589.15] [Mon Oct 31 23:02:16 2022] [nid005741] - Abort(1) (rank 5 in comm 0): application called MPI_Abort(MPI_COMM_WORLD, 1) - process 5

aborting job:
application called MPI_Abort(MPI_COMM_WORLD, 1) - process 5
MPICH ERROR [Rank 12] [job id 2541589.15] [Mon Oct 31 23:02:16 2022] [nid005741] - Abort(1) (rank 12 in comm 0): application called MPI_Abort(MPI_COMM_WORLD, 1) - process 12

aborting job:
application called MPI_Abort(MPI_COMM_WORLD, 1) - process 12
MPICH ERROR [Rank 40] [job id 2541589.15] [Mon Oct 31 23:02:16 2022] [nid005741] - Abort(1) (rank 40 in comm 0): application called MPI_Abort(MPI_COMM_WORLD, 1) - process 40

aborting job:
application called MPI_Abort(MPI_COMM_WORLD, 1) - process 40
MPICH ERROR [Rank 53] [job id 2541589.15] [Mon Oct 31 23:02:16 2022] [nid005741] - Abort(1) (rank 53 in comm 0): application called MPI_Abort(MPI_COMM_WORLD, 1) - process 53

aborting job:
application called MPI_Abort(MPI_COMM_WORLD, 1) - process 53
MPICH ERROR [Rank 13] [job id 2541589.15] [Mon Oct 31 23:02:16 2022] [nid005741] - Abort(1) (rank 13 in comm 0): application called MPI_Abort(MPI_COMM_WORLD, 1) - process 13

aborting job:
application called MPI_Abort(MPI_COMM_WORLD, 1) - process 13
MPICH ERROR [Rank 28] [job id 2541589.15] [Mon Oct 31 23:02:16 2022] [nid005741] - Abort(1) (rank 28 in comm 0): application called MPI_Abort(MPI_COMM_WORLD, 1) - process 28

aborting job:
application called MPI_Abort(MPI_COMM_WORLD, 1) - process 28
MPICH ERROR [Rank 46] [job id 2541589.15] [Mon Oct 31 23:02:16 2022] [nid005741] - Abort(1) (rank 46 in comm 0): application called MPI_Abort(MPI_COMM_WORLD, 1) - process 46

aborting job:
application called MPI_Abort(MPI_COMM_WORLD, 1) - process 46
MPICH ERROR [Rank 11] [job id 2541589.15] [Mon Oct 31 23:02:16 2022] [nid005741] - Abort(1) (rank 11 in comm 0): application called MPI_Abort(MPI_COMM_WORLD, 1) - process 11

aborting job:
application called MPI_Abort(MPI_COMM_WORLD, 1) - process 11
MPICH ERROR [Rank 112] [job id 2541589.15] [Mon Oct 31 23:02:16 2022] [nid005741] - Abort(1) (rank 112 in comm 0): application called MPI_Abort(MPI_COMM_WORLD, 1) - process 112

aborting job:
application called MPI_Abort(MPI_COMM_WORLD, 1) - process 112
MPICH ERROR [Rank 73] [job id 2541589.15] [Mon Oct 31 23:02:16 2022] [nid005741] - Abort(1) (rank 73 in comm 0): application called MPI_Abort(MPI_COMM_WORLD, 1) - process 73

aborting job:
application called MPI_Abort(MPI_COMM_WORLD, 1) - process 73
MPICH ERROR [Rank 101] [job id 2541589.15] [Mon Oct 31 23:02:16 2022] [nid005741] - Abort(1) (rank 101 in comm 0): application called MPI_Abort(MPI_COMM_WORLD, 1) - process 101

aborting job:
application called MPI_Abort(MPI_COMM_WORLD, 1) - process 101
MPICH ERROR [Rank 120] [job id 2541589.15] [Mon Oct 31 23:02:16 2022] [nid005741] - Abort(1) (rank 120 in comm 0): application called MPI_Abort(MPI_COMM_WORLD, 1) - process 120

aborting job:
application called MPI_Abort(MPI_COMM_WORLD, 1) - process 120
MPICH ERROR [Rank 66] [job id 2541589.15] [Mon Oct 31 23:02:16 2022] [nid005741] - Abort(1) (rank 66 in comm 0): application called MPI_Abort(MPI_COMM_WORLD, 1) - process 66

aborting job:
application called MPI_Abort(MPI_COMM_WORLD, 1) - process 66
MPICH ERROR [Rank 122] [job id 2541589.15] [Mon Oct 31 23:02:16 2022] [nid005741] - Abort(1) (rank 122 in comm 0): application called MPI_Abort(MPI_COMM_WORLD, 1) - process 122

aborting job:
application called MPI_Abort(MPI_COMM_WORLD, 1) - process 122
MPICH ERROR [Rank 85] [job id 2541589.15] [Mon Oct 31 23:02:16 2022] [nid005741] - Abort(1) (rank 85 in comm 0): application called MPI_Abort(MPI_COMM_WORLD, 1) - process 85

aborting job:
application called MPI_Abort(MPI_COMM_WORLD, 1) - process 85
MPICH ERROR [Rank 105] [job id 2541589.15] [Mon Oct 31 23:02:16 2022] [nid005741] - Abort(1) (rank 105 in comm 0): application called MPI_Abort(MPI_COMM_WORLD, 1) - process 105

aborting job:
application called MPI_Abort(MPI_COMM_WORLD, 1) - process 105
MPICH ERROR [Rank 88] [job id 2541589.15] [Mon Oct 31 23:02:16 2022] [nid005741] - Abort(1) (rank 88 in comm 0): application called MPI_Abort(MPI_COMM_WORLD, 1) - process 88

aborting job:
application called MPI_Abort(MPI_COMM_WORLD, 1) - process 88
MPICH ERROR [Rank 121] [job id 2541589.15] [Mon Oct 31 23:02:16 2022] [nid005741] - Abort(1) (rank 121 in comm 0): application called MPI_Abort(MPI_COMM_WORLD, 1) - process 121

aborting job:
application called MPI_Abort(MPI_COMM_WORLD, 1) - process 121
MPICH ERROR [Rank 78] [job id 2541589.15] [Mon Oct 31 23:02:16 2022] [nid005741] - Abort(1) (rank 78 in comm 0): application called MPI_Abort(MPI_COMM_WORLD, 1) - process 78

aborting job:
application called MPI_Abort(MPI_COMM_WORLD, 1) - process 78
MPICH ERROR [Rank 80] [job id 2541589.15] [Mon Oct 31 23:02:16 2022] [nid005741] - Abort(1) (rank 80 in comm 0): application called MPI_Abort(MPI_COMM_WORLD, 1) - process 80

aborting job:
application called MPI_Abort(MPI_COMM_WORLD, 1) - process 80
MPICH ERROR [Rank 62] [job id 2541589.15] [Mon Oct 31 23:02:16 2022] [nid005741] - Abort(1) (rank 62 in comm 0): application called MPI_Abort(MPI_COMM_WORLD, 1) - process 62

aborting job:
application called MPI_Abort(MPI_COMM_WORLD, 1) - process 62
MPICH ERROR [Rank 29] [job id 2541589.15] [Mon Oct 31 23:02:16 2022] [nid005741] - Abort(1) (rank 29 in comm 0): application called MPI_Abort(MPI_COMM_WORLD, 1) - process 29

aborting job:
application called MPI_Abort(MPI_COMM_WORLD, 1) - process 29
MPICH ERROR [Rank 113] [job id 2541589.15] [Mon Oct 31 23:02:16 2022] [nid005741] - Abort(1) (rank 113 in comm 0): application called MPI_Abort(MPI_COMM_WORLD, 1) - process 113

aborting job:
application called MPI_Abort(MPI_COMM_WORLD, 1) - process 113
MPICH ERROR [Rank 36] [job id 2541589.15] [Mon Oct 31 23:02:16 2022] [nid005741] - Abort(1) (rank 36 in comm 0): application called MPI_Abort(MPI_COMM_WORLD, 1) - process 36

aborting job:
application called MPI_Abort(MPI_COMM_WORLD, 1) - process 36
MPICH ERROR [Rank 51] [job id 2541589.15] [Mon Oct 31 23:02:16 2022] [nid005741] - Abort(1) (rank 51 in comm 0): application called MPI_Abort(MPI_COMM_WORLD, 1) - process 51

aborting job:
application called MPI_Abort(MPI_COMM_WORLD, 1) - process 51
MPICH ERROR [Rank 55] [job id 2541589.15] [Mon Oct 31 23:02:16 2022] [nid005741] - Abort(1) (rank 55 in comm 0): application called MPI_Abort(MPI_COMM_WORLD, 1) - process 55

aborting job:
application called MPI_Abort(MPI_COMM_WORLD, 1) - process 55
MPICH ERROR [Rank 32] [job id 2541589.15] [Mon Oct 31 23:02:16 2022] [nid005741] - Abort(1) (rank 32 in comm 0): application called MPI_Abort(MPI_COMM_WORLD, 1) - process 32

aborting job:
application called MPI_Abort(MPI_COMM_WORLD, 1) - process 32
MPICH ERROR [Rank 68] [job id 2541589.15] [Mon Oct 31 23:02:16 2022] [nid005741] - Abort(1) (rank 68 in comm 0): application called MPI_Abort(MPI_COMM_WORLD, 1) - process 68

aborting job:
application called MPI_Abort(MPI_COMM_WORLD, 1) - process 68
MPICH ERROR [Rank 102] [job id 2541589.15] [Mon Oct 31 23:02:16 2022] [nid005741] - Abort(1) (rank 102 in comm 0): application called MPI_Abort(MPI_COMM_WORLD, 1) - process 102

aborting job:
application called MPI_Abort(MPI_COMM_WORLD, 1) - process 102
MPICH ERROR [Rank 114] [job id 2541589.15] [Mon Oct 31 23:02:16 2022] [nid005741] - Abort(1) (rank 114 in comm 0): application called MPI_Abort(MPI_COMM_WORLD, 1) - process 114

aborting job:
application called MPI_Abort(MPI_COMM_WORLD, 1) - process 114
MPICH ERROR [Rank 100] [job id 2541589.15] [Mon Oct 31 23:02:16 2022] [nid005741] - Abort(1) (rank 100 in comm 0): application called MPI_Abort(MPI_COMM_WORLD, 1) - process 100

aborting job:
application called MPI_Abort(MPI_COMM_WORLD, 1) - process 100
MPICH ERROR [Rank 108] [job id 2541589.15] [Mon Oct 31 23:02:16 2022] [nid005741] - Abort(1) (rank 108 in comm 0): application called MPI_Abort(MPI_COMM_WORLD, 1) - process 108

aborting job:
application called MPI_Abort(MPI_COMM_WORLD, 1) - process 108
MPICH ERROR [Rank 24] [job id 2541589.15] [Mon Oct 31 23:02:16 2022] [nid005741] - Abort(1) (rank 24 in comm 0): application called MPI_Abort(MPI_COMM_WORLD, 1) - process 24

aborting job:
application called MPI_Abort(MPI_COMM_WORLD, 1) - process 24
MPICH ERROR [Rank 63] [job id 2541589.15] [Mon Oct 31 23:02:16 2022] [nid005741] - Abort(1) (rank 63 in comm 0): application called MPI_Abort(MPI_COMM_WORLD, 1) - process 63

aborting job:
application called MPI_Abort(MPI_COMM_WORLD, 1) - process 63
MPICH ERROR [Rank 9] [job id 2541589.15] [Mon Oct 31 23:02:16 2022] [nid005741] - Abort(1) (rank 9 in comm 0): application called MPI_Abort(MPI_COMM_WORLD, 1) - process 9

aborting job:
application called MPI_Abort(MPI_COMM_WORLD, 1) - process 9
MPICH ERROR [Rank 20] [job id 2541589.15] [Mon Oct 31 23:02:16 2022] [nid005741] - Abort(1) (rank 20 in comm 0): application called MPI_Abort(MPI_COMM_WORLD, 1) - process 20

aborting job:
application called MPI_Abort(MPI_COMM_WORLD, 1) - process 20
MPICH ERROR [Rank 21] [job id 2541589.15] [Mon Oct 31 23:02:16 2022] [nid005741] - Abort(1) (rank 21 in comm 0): application called MPI_Abort(MPI_COMM_WORLD, 1) - process 21

aborting job:
application called MPI_Abort(MPI_COMM_WORLD, 1) - process 21
MPICH ERROR [Rank 35] [job id 2541589.15] [Mon Oct 31 23:02:16 2022] [nid005741] - Abort(1) (rank 35 in comm 0): application called MPI_Abort(MPI_COMM_WORLD, 1) - process 35

aborting job:
application called MPI_Abort(MPI_COMM_WORLD, 1) - process 35
MPICH ERROR [Rank 93] [job id 2541589.15] [Mon Oct 31 23:02:16 2022] [nid005741] - Abort(1) (rank 93 in comm 0): application called MPI_Abort(MPI_COMM_WORLD, 1) - process 93

aborting job:
application called MPI_Abort(MPI_COMM_WORLD, 1) - process 93
MPICH ERROR [Rank 94] [job id 2541589.15] [Mon Oct 31 23:02:16 2022] [nid005741] - Abort(1) (rank 94 in comm 0): application called MPI_Abort(MPI_COMM_WORLD, 1) - process 94

aborting job:
application called MPI_Abort(MPI_COMM_WORLD, 1) - process 94
MPICH ERROR [Rank 125] [job id 2541589.15] [Mon Oct 31 23:02:16 2022] [nid005741] - Abort(1) (rank 125 in comm 0): application called MPI_Abort(MPI_COMM_WORLD, 1) - process 125

aborting job:
application called MPI_Abort(MPI_COMM_WORLD, 1) - process 125
MPICH ERROR [Rank 7] [job id 2541589.15] [Mon Oct 31 23:02:16 2022] [nid005741] - Abort(1) (rank 7 in comm 0): application called MPI_Abort(MPI_COMM_WORLD, 1) - process 7

aborting job:
application called MPI_Abort(MPI_COMM_WORLD, 1) - process 7
MPICH ERROR [Rank 10] [job id 2541589.15] [Mon Oct 31 23:02:16 2022] [nid005741] - Abort(1) (rank 10 in comm 0): application called MPI_Abort(MPI_COMM_WORLD, 1) - process 10

aborting job:
application called MPI_Abort(MPI_COMM_WORLD, 1) - process 10
MPICH ERROR [Rank 38] [job id 2541589.15] [Mon Oct 31 23:02:16 2022] [nid005741] - Abort(1) (rank 38 in comm 0): application called MPI_Abort(MPI_COMM_WORLD, 1) - process 38

aborting job:
application called MPI_Abort(MPI_COMM_WORLD, 1) - process 38
MPICH ERROR [Rank 41] [job id 2541589.15] [Mon Oct 31 23:02:16 2022] [nid005741] - Abort(1) (rank 41 in comm 0): application called MPI_Abort(MPI_COMM_WORLD, 1) - process 41

aborting job:
application called MPI_Abort(MPI_COMM_WORLD, 1) - process 41
MPICH ERROR [Rank 50] [job id 2541589.15] [Mon Oct 31 23:02:16 2022] [nid005741] - Abort(1) (rank 50 in comm 0): application called MPI_Abort(MPI_COMM_WORLD, 1) - process 50

aborting job:
application called MPI_Abort(MPI_COMM_WORLD, 1) - process 50
MPICH ERROR [Rank 74] [job id 2541589.15] [Mon Oct 31 23:02:16 2022] [nid005741] - Abort(1) (rank 74 in comm 0): application called MPI_Abort(MPI_COMM_WORLD, 1) - process 74

aborting job:
application called MPI_Abort(MPI_COMM_WORLD, 1) - process 74
MPICH ERROR [Rank 81] [job id 2541589.15] [Mon Oct 31 23:02:16 2022] [nid005741] - Abort(1) (rank 81 in comm 0): application called MPI_Abort(MPI_COMM_WORLD, 1) - process 81

aborting job:
application called MPI_Abort(MPI_COMM_WORLD, 1) - process 81
MPICH ERROR [Rank 82] [job id 2541589.15] [Mon Oct 31 23:02:16 2022] [nid005741] - Abort(1) (rank 82 in comm 0): application called MPI_Abort(MPI_COMM_WORLD, 1) - process 82

aborting job:
application called MPI_Abort(MPI_COMM_WORLD, 1) - process 82
MPICH ERROR [Rank 104] [job id 2541589.15] [Mon Oct 31 23:02:16 2022] [nid005741] - Abort(1) (rank 104 in comm 0): application called MPI_Abort(MPI_COMM_WORLD, 1) - process 104

aborting job:
application called MPI_Abort(MPI_COMM_WORLD, 1) - process 104
MPICH ERROR [Rank 109] [job id 2541589.15] [Mon Oct 31 23:02:16 2022] [nid005741] - Abort(1) (rank 109 in comm 0): application called MPI_Abort(MPI_COMM_WORLD, 1) - process 109

aborting job:
application called MPI_Abort(MPI_COMM_WORLD, 1) - process 109
MPICH ERROR [Rank 118] [job id 2541589.15] [Mon Oct 31 23:02:16 2022] [nid005741] - Abort(1) (rank 118 in comm 0): application called MPI_Abort(MPI_COMM_WORLD, 1) - process 118

aborting job:
application called MPI_Abort(MPI_COMM_WORLD, 1) - process 118
MPICH ERROR [Rank 124] [job id 2541589.15] [Mon Oct 31 23:02:16 2022] [nid005741] - Abort(1) (rank 124 in comm 0): application called MPI_Abort(MPI_COMM_WORLD, 1) - process 124

aborting job:
application called MPI_Abort(MPI_COMM_WORLD, 1) - process 124
MPICH ERROR [Rank 127] [job id 2541589.15] [Mon Oct 31 23:02:16 2022] [nid005741] - Abort(1) (rank 127 in comm 0): application called MPI_Abort(MPI_COMM_WORLD, 1) - process 127

aborting job:
application called MPI_Abort(MPI_COMM_WORLD, 1) - process 127
MPICH ERROR [Rank 23] [job id 2541589.15] [Mon Oct 31 23:02:16 2022] [nid005741] - Abort(1) (rank 23 in comm 0): application called MPI_Abort(MPI_COMM_WORLD, 1) - process 23

aborting job:
application called MPI_Abort(MPI_COMM_WORLD, 1) - process 23
MPICH ERROR [Rank 47] [job id 2541589.15] [Mon Oct 31 23:02:16 2022] [nid005741] - Abort(1) (rank 47 in comm 0): application called MPI_Abort(MPI_COMM_WORLD, 1) - process 47

aborting job:
application called MPI_Abort(MPI_COMM_WORLD, 1) - process 47
MPICH ERROR [Rank 91] [job id 2541589.15] [Mon Oct 31 23:02:16 2022] [nid005741] - Abort(1) (rank 91 in comm 0): application called MPI_Abort(MPI_COMM_WORLD, 1) - process 91

aborting job:
application called MPI_Abort(MPI_COMM_WORLD, 1) - process 91
 TTTTTTTTTTTTTTTTTTTTTTTTTTTTTT ERR         TELAPSE     2375.03 TCPU     2357.27
MPICH ERROR [Rank 0] [job id 2541589.15] [Mon Oct 31 23:02:16 2022] [nid005741] - Abort(1) (rank 0 in comm 0): application called MPI_Abort(MPI_COMM_WORLD, 1) - process 0

aborting job:
application called MPI_Abort(MPI_COMM_WORLD, 1) - process 0
srun: error: nid005741: tasks 0-127: Exited with exit code 255
srun: launch/slurm: _step_signal: Terminating StepId=2541589.15
end_date Mon Oct 31 23:02:16 GMT 2022
 
TEMPORARY          SAVED (in /mnt/lustre/a2fs-work2/work/e05/e05/bcamino/quantum_computing/test_model/optgeom)
fort.87            graphene_3v_I.ERROR108      Oct 31 23:02
fort.34            graphene_3v_I.gui 1492     Oct 31 23:02
fort.33            graphene_3v_I.xyz 105607   Oct 31 23:02
fort.9             graphene_3v_I.f9  1515440  Oct 31 23:02
fort.98            graphene_3v_I.f98 3943484  Oct 31 23:02
SCFOUT.LOG         graphene_3v_I.SCFLOG2235070  Oct 31 23:02
OPTINFO.DAT        graphene_3v_I.OPTINFO11906031 Oct 31 23:02
HESSOPT.DAT        graphene_3v_I.HESSOPT37485    Oct 31 23:02
opta001            opta002            
Disk usage:<du -m>
535	/mnt/lustre/a2fs-work2/work/e05/e05/bcamino/quantum_computing/test_model/optgeom/tmp_graphene_3v_I_
</du -m>
Filesystem                                          1K-blocks          Used     Available Use% Mounted on
10.253.102.2@o2ib1:10.253.102.3@o2ib1:/cls01097 3582178503216 1816144431780 1729806789424  52% /mnt/lustre/a2fs-work2
10.253.102.2@o2ib1:10.253.102.3@o2ib1:/cls01097 3582178503216 1816144431780 1729806789424  52% /mnt/lustre/a2fs-work2
