date:                Mon Oct 31 17:59:42 GMT 2022
hostname:            nid005741
system:              Linux nid005741 4.12.14-197.78_9.1.64-cray_shasta_c #1 SMP Wed Aug 25 14:56:40 UTC 2021 (4e2a900) x86_64 x86_64 x86_64 GNU/Linux
user:                bcamino
input:               /mnt/lustre/a2fs-work2/work/e05/e05/bcamino/quantum_computing/test_model/optgeom/graphene_2v_C.d12
output:              /mnt/lustre/a2fs-work2/work/e05/e05/bcamino/quantum_computing/test_model/optgeom/graphene_2v_C.out
executable script:   /work/e05/e05/bcamino/runCRYSTAL/Pcry_slurm
executable:          Pcrystal
Command:             srun --hint=nomultithread --distribution=block:block Pcrystal
Slurm JobID:         
temporary directory: /mnt/lustre/a2fs-work2/work/e05/e05/bcamino/quantum_computing/test_model/optgeom/tmp_graphene_2v_C_      
input data /mnt/lustre/a2fs-work2/work/e05/e05/bcamino/quantum_computing/test_model/optgeom/graphene_2v_C.d12
Final
EXTERNAL
SYMMREMO
OPTGEOM
ATOMONLY
END
END
6 8
0 0 6 2.0 1.0
  13575.349682      0.00022245814352
  2035.2333680      0.00172327382520
  463.22562359      0.00892557153140
  131.20019598      0.03572798450200
  42.853015891      0.11076259931000
  15.584185766      0.24295627626000
0 0 2 2.0 1.0
  6.2067138508      0.41440263448000
  2.5764896527      0.23744968655000
0 0 1 0.0 1.0
  0.4941102000      1.00000000000000
0 0 1 0.0 1.0
  0.1644071000      1.00000000000000
0 2 4 2.0 1.0
  34.697232244      0.00533336578050
  7.9582622826      0.03586410909200
  2.3780826883      0.14215873329000
  0.8143320818      0.34270471845000
0 2 1 0.0 1.0
  0.5662417100      1.00000000000000
0 2 1 0.0 1.0
  0.1973545000      1.00000000000000
0 3 1 0.0 1.0
  0.5791584200      1.00000000000000
99 0
ENDBS
DFT
PBE  
ENDDFT
TOLINTEG
8 8 8 8 16
SCFDIR
SHRINK
8 16  
MAXCYCLE
200
TOLDEE
9 
ENDSCF
input data /mnt/lustre/a2fs-work2/work/e05/e05/bcamino/quantum_computing/test_model/optgeom/graphene_2v_C.gui
         128 PROCESSORS WORKING

         
 *******************************************************************************
 *                                                                             *
 *                               CRYSTAL17                                     *
 *                      public : 1.0.2 - March 1st, 2018 STFC/Archer2 build    *
 *                       HTTP://WWW.CRYSTAL.UNITO.IT                           *
 *                                                                             *
 *                              MAIN AUTHORS                                   *
 *                                                                             *
 *  R. DOVESI(1,11), V.R. SAUNDERS(2), C. ROETTI(1,11), R. ORLANDO(1,11),      *
 *  C.M. ZICOVICH-WILSON(1,3), F. PASCALE(4), B. CIVALLERI(1,11),              *
 *  K. DOLL(5), N.M. HARRISON(2,6), I.J. BUSH(7), Ph. D'ARCO(8),               *
 *  M. LLUNELL(9), M. CAUSA'(10), Y. NOEL(8), L. MASCHIO(1,11), A. ERBA(1,11)  *
 *  M. RE'RAT(14), S. CASASSA(1,11)                                            *
 *                                                                             *
 *        CONTRIBUTIONS TO THE CODE HAVE ALSO BEEN GIVEN BY                    *
 *                                                                             *
 *  M. FERRABONE(1,11), M. DE LA PIERRE(1,11), M. FERRERO(1,11),               *
 *  J. BAIMA(1,11), E. ALBANESE(1,11), M.F. PEINTINGER(12), R. BAST(13),       *
 *  B. KIRTMAN(15), V. LACIVITA(1,11), R. DEMICHELIS(1,16)                     *
 *  G. BRANDEBURG(17), S. SALUSTRO(1,11), G. SANSONE(1,11)                     *
 *  M.T. RUGGIERO(18)                                                          *
 *                                                                             *
 * (1) THEORETICAL CHEMISTRY GROUP - UNIVERSITA' DI TORINO - TORINO (ITALY)    *
 * (2) COMPUTATIONAL SCIENCE & ENGINEERING DEPARTMENT - STFC DARESBURY (UK)    *
 * (3) UNIVERSIDAD AUTONOMA DEL ESTADO DE MORELOS - CUERNAVACA (MEXICO)        *
 * (4) UNIVERSITE' DE LORRAINE - NANCY (FRANCE)                                *
 * (5) UNIVERSITAET STUTTGART- STUTTGART (GERMANY)                             *
 * (6) IMPERIAL COLLEGE - LONDON (UK)                                          *
 * (7) OXFORD E-RESEARCH CENTRE - OXFORD (UK)                                  *
 * (8) UPMC - SORBONNE UNIVERSITES - PARIS (FRANCE)                            *
 * (9) UNIVERSIDAD DE BARCELONA - BARCELONA (SPAIN)                            *
 *(10) UNIVERSITA' DI NAPOLI "FEDERICO II" - NAPOLI (ITALY)                    *
 *(11) NIS - NANOSTRUCTURED INTERFACES AND SURFACES - TORINO (ITALY)           *
 *(12) MPI FUER CHEMISCHE ENERGIEKONVERSION - MUELHEIM AN DER RUHR (GERMANY)   *
 *(13) UNIVERSITY OF TROMSO - TROMSO (NORWAY)                                  *
 *(14) UNIVERSITE' DE PAU ET DES PAYS DE L'ADOUR - PAU (FRANCE)                *
 *(15) UNIVERSITY OF CALIFORNIA SANTA BARBARA - SANTA BARBARA (USA)            *
 *(16) CURTIN UNIVERSITY - PERTH (AUSTRALIA)                                   *
 *(17) UNIVERSITY COLLEGE LONDON - LONDON (UK)                                 *
 *(18) CAMBRIDGE UNIVERSITY - CAMBRIDGE (UK)                                   *
 *                                                                             *
 *******************************************************************************
 EEEEEEEEEE STARTING  DATE 31 10 2022 TIME 17:59:45.0
 Final                                                                           

 GEOMETRY INPUT FROM EXTERNAL FILE (FORTRAN UNIT 34)
 3D - CRYSTAL 

 *******************************************************************************
 LATTICE PARAMETERS  (ANGSTROMS AND DEGREES) - PRIMITIVE CELL
       A          B          C        ALPHA      BETA     GAMMA        VOLUME
    7.40317    7.40317    8.68504    90.00000  90.00000 120.00000    412.228566
 INFORMATION **** CHKGRP **** SPGR WITH NO INVERSION

 NUMBER OF IRREDUCIBLE ATOMS IN THE CELL:   16

 CARTESIAN COORDINATES (ANGSTROM) - IRREDUCIBLE ATOMS AND SYMMETRY RELATED

 AT.IRR.  AT  AT.N.          X                   Y                   Z
     1     1     6    1.233862070683E+00  7.123705986520E-01  2.605511400000E+00
     2     2     6    2.467724141366E+00  2.849482394607E+00  2.605511400000E+00
     3     3     6    3.701586212049E+00  4.986594190562E+00  2.605511400000E+00
     4     4     6    3.701586212049E+00  7.123705986520E-01  2.605511400000E+00
     5     5     6    4.935448282733E+00  2.849482394607E+00  2.605511400000E+00
     6     6     6    3.701586212049E+00 -3.561852993259E+00  2.605511400000E+00
     7     7     6    6.169310353416E+00  7.123705986520E-01  2.605511400000E+00
     8     8     6    1.233862070683E+00 -7.123705986520E-01  2.605511400000E+00
     9     9     6    2.467724141366E+00  1.424741197304E+00  2.605511400000E+00
    10    10     6    3.701586212049E+00  3.561852993259E+00  2.605511400000E+00
    11    11     6    2.467724141366E+00 -2.849482394607E+00  2.605511400000E+00
    12    12     6    3.701586212049E+00 -7.123705986520E-01  2.605511400000E+00
    13    13     6    4.935448282733E+00  1.424741197304E+00  2.605511400000E+00
    14    14     6    3.701586212049E+00 -4.986594190562E+00  2.605511400000E+00
    15    15     6    4.935448282733E+00 -2.849482394607E+00  2.605511400000E+00
    16    16     6    6.169310353416E+00 -7.123705986520E-01  2.605511400000E+00

 SPACE  GROUP  N.                     :    1
 NUMBER OF SYMMETRY OPERATORS         :    1
 *******************************************************************************
 LATTICE PARAMETERS (ANGSTROMS AND DEGREES) - BOHR = 0.5291772083 ANGSTROM
 PRIMITIVE CELL - CENTRING CODE 1/0 VOLUME=   412.228566 - DENSITY  0.773 g/cm^3
         A              B              C           ALPHA      BETA       GAMMA 
     7.40317242     7.40317242     8.68503800    90.000000  90.000000 120.000000
 *******************************************************************************
 ATOMS IN THE ASYMMETRIC UNIT   16 - ATOMS IN THE UNIT CELL:   16
     ATOM                 X/A                 Y/B                 Z/C    
 *******************************************************************************
      1 T   6 C     1.111111111111E-01  2.222222222222E-01  3.000000000000E-01
      2 T   6 C     1.111111111111E-01 -4.444444444445E-01  3.000000000000E-01
      3 T   6 C     1.111111111111E-01 -1.111111111111E-01  3.000000000000E-01
      4 T   6 C     4.444444444444E-01 -4.444444444444E-01  3.000000000000E-01
      5 T   6 C     4.444444444446E-01 -1.111111111110E-01  3.000000000000E-01
      6 T   6 C    -2.222222222222E-01  2.222222222222E-01  3.000000000000E-01
      7 T   6 C    -2.222222222221E-01 -1.111111111110E-01  3.000000000000E-01
      8 T   6 C     2.222222222222E-01  1.111111111111E-01  3.000000000000E-01
      9 T   6 C     2.222222222222E-01  4.444444444445E-01  3.000000000000E-01
     10 T   6 C     2.222222222222E-01 -2.222222222222E-01  3.000000000000E-01
     11 T   6 C    -4.444444444445E-01  1.111111111111E-01  3.000000000000E-01
     12 T   6 C    -4.444444444444E-01  4.444444444444E-01  3.000000000000E-01
     13 T   6 C    -4.444444444443E-01 -2.222222222221E-01  3.000000000000E-01
     14 T   6 C    -1.111111111111E-01  1.111111111111E-01  3.000000000000E-01
     15 T   6 C    -1.111111111110E-01  4.444444444446E-01  3.000000000000E-01
     16 T   6 C    -1.111111111110E-01 -2.222222222221E-01  3.000000000000E-01

 T = ATOM BELONGING TO THE ASYMMETRIC UNIT
 *******************************************************************************
 * GEOMETRY EDITING - INPUT COORDINATES ARE GIVEN IN ANGSTROM         
 *******************************************************************************

 USE OF SYMMETRY WILL BE SUBSEQUENTLY SUSPENDED
 INFORMATION **** NEW DEFAULT **** FINALRUN 4 FOR GEOMETRY OPTIMIZATIONS
 INFORMATION **** NEW DEFAULT **** OPTGEOM OPTIMIZES BOTH ATOMIC COORDINATES AND CELL PARAMETERS
 INFORMATION **** NEW DEFAULT **** TOL. ON ATOMIC DISP TO REDEFINE REF. GEOMETRY: 0.8 Angs
 INFORMATION **** NEW DEFAULT **** N POINTS TO REDEFINE REF. GEOMETRY: N OF OPT DEGS OF FREEDOM
 INFORMATION **** NEW DEFAULT **** TOL. ON ENERGY TO REDEFINE REF. GEOMETRY: 10**-3*(5*N. ATOMS)
 INFORMATION **** ATOMONLY **** ONLY ATOMIC COORDINATES ARE OPTIMIZED

 IMPORTANT INFORMATION:
 THE COORDINATE SYSTEM ADOPTED IN THE OPTIMIZATION IS NOT IN
 GENERAL HOMOGENEOUS UNITS. FOR THIS REASON THE GRADIENT AND 
 HESSIAN MATRIX IN TERMS OF THIS SYSTEM ARE GIVEN WITHOUT
 UNITS. FOR MORE DETAILS SEE THE MANUAL.

 *******************************************************************************
 ATOMIC POSITIONS OPTIMIZATION CONTROL

 INITIAL TRUST RADIUS         0.50000 MAXIMUM TRUST RADIUS               4.00000
 MAXIMUM GRADIENT COMPONENT   0.00045 MAXIMUM DISPLACEMENT COMPONENT     0.00180
 R.M.S. OF GRADIENT COMPONENT 0.00030 R.M.S. OF DISPLACEMENT COMPONENTS  0.00120
 THRESHOLD ON ENERGY CHANGE 0.100E-06 EXTRAPOLATING POLYNOMIAL ORDER           2
 MAXIMUM ALLOWED NUMBER OF STEPS   -1 SORTING OF ENERGY POINTS:               NO
 ANALYTICAL  GRADIENT                 HESSIAN UPDATING                      BFGS
 STEP SIZE NUMERICAL GRADIENT 0.00100
 INITIAL HESSIAN MATRIX: SCHLEGEL MODEL 2
 *******************************************************************************


 GCALCO - MAX INDICES DIRECT LATTICE VECTOR    16    16    12
 NO.OF VECTORS CREATED 6999 STARS  379 RMAX   166.99060 BOHR

 GEOMETRY FOR WAVE FUNCTION - DIMENSIONALITY OF THE SYSTEM    3
 (NON PERIODIC DIRECTION: LATTICE PARAMETER FORMALLY SET TO 500)
 *******************************************************************************
 LATTICE PARAMETERS (ANGSTROMS AND DEGREES) - BOHR = 0.5291772083 ANGSTROM
 PRIMITIVE CELL - CENTRING CODE 1/0 VOLUME=   412.228566 - DENSITY  0.773 g/cm^3
         A              B              C           ALPHA      BETA       GAMMA 
     7.40317242     7.40317242     8.68503800    90.000000  90.000000 120.000000
 *******************************************************************************
 ATOMS IN THE ASYMMETRIC UNIT   16 - ATOMS IN THE UNIT CELL:   16
     ATOM                 X/A                 Y/B                 Z/C    
 *******************************************************************************
      1 T   6 C     1.111111111111E-01  2.222222222222E-01  3.000000000000E-01
      2 T   6 C     1.111111111111E-01 -4.444444444445E-01  3.000000000000E-01
      3 T   6 C     1.111111111111E-01 -1.111111111111E-01  3.000000000000E-01
      4 T   6 C     4.444444444444E-01 -4.444444444444E-01  3.000000000000E-01
      5 T   6 C     4.444444444446E-01 -1.111111111110E-01  3.000000000000E-01
      6 T   6 C    -2.222222222222E-01  2.222222222222E-01  3.000000000000E-01
      7 T   6 C    -2.222222222221E-01 -1.111111111110E-01  3.000000000000E-01
      8 T   6 C     2.222222222222E-01  1.111111111111E-01  3.000000000000E-01
      9 T   6 C     2.222222222222E-01  4.444444444445E-01  3.000000000000E-01
     10 T   6 C     2.222222222222E-01 -2.222222222222E-01  3.000000000000E-01
     11 T   6 C    -4.444444444445E-01  1.111111111111E-01  3.000000000000E-01
     12 T   6 C    -4.444444444444E-01  4.444444444444E-01  3.000000000000E-01
     13 T   6 C    -4.444444444443E-01 -2.222222222221E-01  3.000000000000E-01
     14 T   6 C    -1.111111111111E-01  1.111111111111E-01  3.000000000000E-01
     15 T   6 C    -1.111111111110E-01  4.444444444446E-01  3.000000000000E-01
     16 T   6 C    -1.111111111110E-01 -2.222222222221E-01  3.000000000000E-01

 T = ATOM BELONGING TO THE ASYMMETRIC UNIT

 ****    1 SYMMOPS - TRANSLATORS IN FRACTIONAL UNITS
 **** MATRICES AND TRANSLATORS IN THE CRYSTALLOGRAPHIC REFERENCE FRAME
   V INV                    ROTATION MATRICES                   TRANSLATORS
   1   1  1.00  0.00  0.00  0.00  1.00  0.00  0.00  0.00  1.00  0.00  0.00  0.00

 DIRECT LATTICE VECTORS CARTESIAN COMPONENTS (ANGSTROM)
          X                    Y                    Z
   0.370158621205E+01  -0.641133538787E+01   0.000000000000E+00
   0.370158621205E+01   0.641133538787E+01   0.000000000000E+00
   0.000000000000E+00   0.000000000000E+00   0.868503800000E+01


 CARTESIAN COORDINATES - PRIMITIVE CELL
 *******************************************************************************
 *      ATOM          X(ANGSTROM)         Y(ANGSTROM)         Z(ANGSTROM)
 *******************************************************************************
    1     6 C     1.233862070683E+00  7.123705986520E-01  2.605511400000E+00
    2     6 C     2.467724141366E+00  2.849482394607E+00  2.605511400000E+00
    3     6 C     3.701586212049E+00  4.986594190562E+00  2.605511400000E+00
    4     6 C     3.701586212049E+00  7.123705986520E-01  2.605511400000E+00
    5     6 C     4.935448282733E+00  2.849482394607E+00  2.605511400000E+00
    6     6 C     3.701586212049E+00 -3.561852993259E+00  2.605511400000E+00
    7     6 C     6.169310353416E+00  7.123705986520E-01  2.605511400000E+00
    8     6 C     1.233862070683E+00 -7.123705986520E-01  2.605511400000E+00
    9     6 C     2.467724141366E+00  1.424741197304E+00  2.605511400000E+00
   10     6 C     3.701586212049E+00  3.561852993259E+00  2.605511400000E+00
   11     6 C     2.467724141366E+00 -2.849482394607E+00  2.605511400000E+00
   12     6 C     3.701586212049E+00 -7.123705986520E-01  2.605511400000E+00
   13     6 C     4.935448282733E+00  1.424741197304E+00  2.605511400000E+00
   14     6 C     3.701586212049E+00 -4.986594190562E+00  2.605511400000E+00
   15     6 C     4.935448282733E+00 -2.849482394607E+00  2.605511400000E+00
   16     6 C     6.169310353416E+00 -7.123705986520E-01  2.605511400000E+00

 *******************************************************************************
 LOCAL ATOMIC FUNCTIONS BASIS SET
 *******************************************************************************
   ATOM   X(AU)   Y(AU)   Z(AU)  N. TYPE  EXPONENT  S COEF   P COEF   D/F/G COEF
 *******************************************************************************
   1 C    2.332   1.346   4.924
                                  1 S  
                                         1.358E+04 2.225E-04 0.000E+00 0.000E+00
                                         2.035E+03 1.723E-03 0.000E+00 0.000E+00
                                         4.632E+02 8.926E-03 0.000E+00 0.000E+00
                                         1.312E+02 3.573E-02 0.000E+00 0.000E+00
                                         4.285E+01 1.108E-01 0.000E+00 0.000E+00
                                         1.558E+01 2.430E-01 0.000E+00 0.000E+00
                                  2 S  
                                         6.207E+00 4.144E-01 0.000E+00 0.000E+00
                                         2.576E+00 2.374E-01 0.000E+00 0.000E+00
                                  3 S  
                                         4.941E-01 1.000E+00 0.000E+00 0.000E+00
                                  4 S  
                                         1.644E-01 1.000E+00 0.000E+00 0.000E+00
                           5-     7 P  
                                         3.470E+01 0.000E+00 5.333E-03 0.000E+00
                                         7.958E+00 0.000E+00 3.586E-02 0.000E+00
                                         2.378E+00 0.000E+00 1.422E-01 0.000E+00
                                         8.143E-01 0.000E+00 3.427E-01 0.000E+00
                           8-    10 P  
                                         5.662E-01 0.000E+00 1.000E+00 0.000E+00
                          11-    13 P  
                                         1.974E-01 0.000E+00 1.000E+00 0.000E+00
                          14-    18 D  
                                         5.792E-01 0.000E+00 0.000E+00 1.000E+00
   2 C    4.663   5.385   4.924
   3 C    6.995   9.423   4.924
   4 C    6.995   1.346   4.924
   5 C    9.327   5.385   4.924
   6 C    6.995  -6.731   4.924
   7 C   11.658   1.346   4.924
   8 C    2.332  -1.346   4.924
   9 C    4.663   2.692   4.924
  10 C    6.995   6.731   4.924
  11 C    4.663  -5.385   4.924
  12 C    6.995  -1.346   4.924
  13 C    9.327   2.692   4.924
  14 C    6.995  -9.423   4.924
  15 C    9.327  -5.385   4.924
  16 C   11.658  -1.346   4.924
 INFORMATION **** SET_MPP **** PCRYSTAL CALCULATION
 INFORMATION **** READM2 **** NEW DEFAULT: FOCK/KS MATRIX MIXING SET TO 30 %
 INFORMATION **** READM2 **** NEW DEFAULT: FULL DIRECT SCF MODE
 INFORMATION **** READM2 **** NEW DEFAULT: COULOMB BIPOLAR BUFFER SET TO 32 Mb
 INFORMATION **** READM2 **** NEW DEFAULT: EXCHANGE BIPOLAR BUFFER SET TO 32 Mb

 *******************************************************************************
 NEW DEFAULT: DFT INTEGRATION GRID INCREASED TO XLGRID
 NEW DEFAULT: DIIS ACCELERATOR ACTIVE
 USE KEYWORD NODIIS TO TURN IT OFF
 *******************************************************************************

 INFORMATION **** TOLINTEG **** COULOMB AND EXCHANGE SERIES TOLERANCES MODIFIED
 INFORMATION **** READM2 **** FULL DIRECT SCF (MONO AND BIEL INT) SELECTED
 INFORMATION **** MAXCYCLE **** MAX NUMBER OF SCF CYCLES SET TO         200
 INFORMATION **** TOLDEE **** SCF TOL ON TOTAL ENERGY SET TO           9
 *******************************************************************************
 N. OF ATOMS PER CELL        16  COULOMB OVERLAP TOL         (T1) 10**   -8
 NUMBER OF SHELLS           128  COULOMB PENETRATION TOL     (T2) 10**   -8
 NUMBER OF AO               288  EXCHANGE OVERLAP TOL        (T3) 10**   20
 N. OF ELECTRONS PER CELL    96  EXCHANGE PSEUDO OVP (F(G))  (T4) 10**   20
 CORE ELECTRONS PER CELL     32  EXCHANGE PSEUDO OVP (P(G))  (T5) 10**   20
 N. OF SYMMETRY OPERATORS     1  POLE ORDER IN MONO ZONE                  4
 *******************************************************************************
 TYPE OF CALCULATION :  RESTRICTED CLOSED SHELL
 KOHN-SHAM HAMILTONIAN

 (EXCHANGE)[CORRELATION] FUNCTIONAL:(PERDEW-BURKE-ERNZERHOF)[PERDEW-BURKE-ERNZERHOF]


 CAPPA:IS1  8;IS2  8;IS3  8; K PTS MONK NET 260; SYMMOPS:K SPACE   2;G SPACE   1

 *******************************************************************************
 MAX NUMBER OF SCF CYCLES     200  CONVERGENCE ON DELTAP        10**-19
 WEIGHT OF F(I) IN F(I+1)      30% CONVERGENCE ON ENERGY        10**- 9
 SHRINK. FACT.(MONKH.)    8  8  8  NUMBER OF K POINTS IN THE IBZ    260
 SHRINKING FACTOR(GILAT NET)   16  NUMBER OF K POINTS(GILAT NET)   2052
 *******************************************************************************
 *** K POINTS COORDINATES (OBLIQUE COORDINATES IN UNITS OF IS =  8)
   1-R(  0  0  0)   2-C(  1  0  0)   3-C(  2  0  0)   4-C(  3  0  0)
   5-R(  4  0  0)   6-C(  0  1  0)   7-C(  1  1  0)   8-C(  2  1  0)
   9-C(  3  1  0)  10-C(  4  1  0)  11-C(  5  1  0)  12-C(  6  1  0)
  13-C(  7  1  0)  14-C(  0  2  0)  15-C(  1  2  0)  16-C(  2  2  0)
  17-C(  3  2  0)  18-C(  4  2  0)  19-C(  5  2  0)  20-C(  6  2  0)
  21-C(  7  2  0)  22-C(  0  3  0)  23-C(  1  3  0)  24-C(  2  3  0)
  25-C(  3  3  0)  26-C(  4  3  0)  27-C(  5  3  0)  28-C(  6  3  0)
  29-C(  7  3  0)  30-R(  0  4  0)  31-C(  1  4  0)  32-C(  2  4  0)
  33-C(  3  4  0)  34-R(  4  4  0)  35-C(  0  0  1)  36-C(  1  0  1)
  37-C(  2  0  1)  38-C(  3  0  1)  39-C(  4  0  1)  40-C(  5  0  1)
  41-C(  6  0  1)  42-C(  7  0  1)  43-C(  0  1  1)  44-C(  1  1  1)
  45-C(  2  1  1)  46-C(  3  1  1)  47-C(  4  1  1)  48-C(  5  1  1)
  49-C(  6  1  1)  50-C(  7  1  1)  51-C(  0  2  1)  52-C(  1  2  1)
  53-C(  2  2  1)  54-C(  3  2  1)  55-C(  4  2  1)  56-C(  5  2  1)
  57-C(  6  2  1)  58-C(  7  2  1)  59-C(  0  3  1)  60-C(  1  3  1)
  61-C(  2  3  1)  62-C(  3  3  1)  63-C(  4  3  1)  64-C(  5  3  1)
  65-C(  6  3  1)  66-C(  7  3  1)  67-C(  0  4  1)  68-C(  1  4  1)
  69-C(  2  4  1)  70-C(  3  4  1)  71-C(  4  4  1)  72-C(  5  4  1)
  73-C(  6  4  1)  74-C(  7  4  1)  75-C(  0  5  1)  76-C(  1  5  1)
  77-C(  2  5  1)  78-C(  3  5  1)  79-C(  4  5  1)  80-C(  5  5  1)
  81-C(  6  5  1)  82-C(  7  5  1)  83-C(  0  6  1)  84-C(  1  6  1)
  85-C(  2  6  1)  86-C(  3  6  1)  87-C(  4  6  1)  88-C(  5  6  1)
  89-C(  6  6  1)  90-C(  7  6  1)  91-C(  0  7  1)  92-C(  1  7  1)
  93-C(  2  7  1)  94-C(  3  7  1)  95-C(  4  7  1)  96-C(  5  7  1)
  97-C(  6  7  1)  98-C(  7  7  1)  99-C(  0  0  2) 100-C(  1  0  2)
 101-C(  2  0  2) 102-C(  3  0  2) 103-C(  4  0  2) 104-C(  5  0  2)
 105-C(  6  0  2) 106-C(  7  0  2) 107-C(  0  1  2) 108-C(  1  1  2)
 109-C(  2  1  2) 110-C(  3  1  2) 111-C(  4  1  2) 112-C(  5  1  2)
 113-C(  6  1  2) 114-C(  7  1  2) 115-C(  0  2  2) 116-C(  1  2  2)
 117-C(  2  2  2) 118-C(  3  2  2) 119-C(  4  2  2) 120-C(  5  2  2)
 121-C(  6  2  2) 122-C(  7  2  2) 123-C(  0  3  2) 124-C(  1  3  2)
 125-C(  2  3  2) 126-C(  3  3  2) 127-C(  4  3  2) 128-C(  5  3  2)
 129-C(  6  3  2) 130-C(  7  3  2) 131-C(  0  4  2) 132-C(  1  4  2)
 133-C(  2  4  2) 134-C(  3  4  2) 135-C(  4  4  2) 136-C(  5  4  2)
 137-C(  6  4  2) 138-C(  7  4  2) 139-C(  0  5  2) 140-C(  1  5  2)
 141-C(  2  5  2) 142-C(  3  5  2) 143-C(  4  5  2) 144-C(  5  5  2)
 145-C(  6  5  2) 146-C(  7  5  2) 147-C(  0  6  2) 148-C(  1  6  2)
 149-C(  2  6  2) 150-C(  3  6  2) 151-C(  4  6  2) 152-C(  5  6  2)
 153-C(  6  6  2) 154-C(  7  6  2) 155-C(  0  7  2) 156-C(  1  7  2)
 157-C(  2  7  2) 158-C(  3  7  2) 159-C(  4  7  2) 160-C(  5  7  2)
 161-C(  6  7  2) 162-C(  7  7  2) 163-C(  0  0  3) 164-C(  1  0  3)
 165-C(  2  0  3) 166-C(  3  0  3) 167-C(  4  0  3) 168-C(  5  0  3)
 169-C(  6  0  3) 170-C(  7  0  3) 171-C(  0  1  3) 172-C(  1  1  3)
 173-C(  2  1  3) 174-C(  3  1  3) 175-C(  4  1  3) 176-C(  5  1  3)
 177-C(  6  1  3) 178-C(  7  1  3) 179-C(  0  2  3) 180-C(  1  2  3)
 181-C(  2  2  3) 182-C(  3  2  3) 183-C(  4  2  3) 184-C(  5  2  3)
 185-C(  6  2  3) 186-C(  7  2  3) 187-C(  0  3  3) 188-C(  1  3  3)
 189-C(  2  3  3) 190-C(  3  3  3) 191-C(  4  3  3) 192-C(  5  3  3)
 193-C(  6  3  3) 194-C(  7  3  3) 195-C(  0  4  3) 196-C(  1  4  3)
 197-C(  2  4  3) 198-C(  3  4  3) 199-C(  4  4  3) 200-C(  5  4  3)
 201-C(  6  4  3) 202-C(  7  4  3) 203-C(  0  5  3) 204-C(  1  5  3)
 205-C(  2  5  3) 206-C(  3  5  3) 207-C(  4  5  3) 208-C(  5  5  3)
 209-C(  6  5  3) 210-C(  7  5  3) 211-C(  0  6  3) 212-C(  1  6  3)
 213-C(  2  6  3) 214-C(  3  6  3) 215-C(  4  6  3) 216-C(  5  6  3)
 217-C(  6  6  3) 218-C(  7  6  3) 219-C(  0  7  3) 220-C(  1  7  3)
 221-C(  2  7  3) 222-C(  3  7  3) 223-C(  4  7  3) 224-C(  5  7  3)
 225-C(  6  7  3) 226-C(  7  7  3) 227-R(  0  0  4) 228-C(  1  0  4)
 229-C(  2  0  4) 230-C(  3  0  4) 231-R(  4  0  4) 232-C(  0  1  4)
 233-C(  1  1  4) 234-C(  2  1  4) 235-C(  3  1  4) 236-C(  4  1  4)
 237-C(  5  1  4) 238-C(  6  1  4) 239-C(  7  1  4) 240-C(  0  2  4)
 241-C(  1  2  4) 242-C(  2  2  4) 243-C(  3  2  4) 244-C(  4  2  4)
 245-C(  5  2  4) 246-C(  6  2  4) 247-C(  7  2  4) 248-C(  0  3  4)
 249-C(  1  3  4) 250-C(  2  3  4) 251-C(  3  3  4) 252-C(  4  3  4)
 253-C(  5  3  4) 254-C(  6  3  4) 255-C(  7  3  4) 256-R(  0  4  4)
 257-C(  1  4  4) 258-C(  2  4  4) 259-C(  3  4  4) 260-R(  4  4  4)

 DIRECT LATTICE VECTORS COMPON. (A.U.)     RECIP. LATTICE VECTORS COMPON. (A.U.) 
        X            Y            Z              X            Y            Z
    6.9949842  -12.1156680    0.0000000      0.4491208   -0.2593000    0.0000000
    6.9949842   12.1156680    0.0000000      0.4491208    0.2593000   -0.0000000
    0.0000000    0.0000000   16.4123433     -0.0000000    0.0000000    0.3828329

 DISK SPACE FOR EIGENVECTORS (FTN 10)    42467328 REALS

 SYMMETRY ADAPTION OF THE BLOCH FUNCTIONS DISABLED
 TTTTTTTTTTTTTTTTTTTTTTTTTTTTTT gordsh1     TELAPSE        2.29 TCPU        0.93

 MATRIX SIZE: P(G)  125958, F(G)   63171, P(G) IRR   63475, F(G) IRR   63475
 MAX G-VECTOR INDEX FOR 1- AND 2-ELECTRON INTEGRALS  27

 TTTTTTTTTTTTTTTTTTTTTTTTTTTTTT INPUT       TELAPSE        2.30 TCPU        0.94

 NEIGHBORS OF THE NON-EQUIVALENT ATOMS

 N = NUMBER OF NEIGHBORS AT DISTANCE R
    ATOM  N     R/ANG      R/AU   NEIGHBORS (ATOM LABELS AND CELL INDICES)
   1 C    3     1.4247     2.6924    8 C    0 0 0    9 C    0 0 0   14 C   -1 0 0
   1 C    5     2.4677     4.6633    2 C    0 0 0    3 C    0-1 0    4 C    0 0 0
                                     6 C   -1 0 0    7 C   -1-1 0
   1 C    3     2.8495     5.3847   12 C    0 0 0   15 C   -1 0 0   16 C   -1-1 0
   1 C    6     3.7695     7.1233   10 C    0 0 0   10 C    0-1 0   11 C    0 0 0
                                    11 C   -1 0 0   13 C    0 0 0   13 C   -1-1 0
   1 C    3     4.2742     8.0771    5 C    0 0 0    5 C   -1-1 0    5 C    0-1 0
   1 C    5     4.9354     9.3266    2 C    0-1 0    3 C    0 0 0    4 C   -1-1 0
                                     6 C    0 0 0    7 C    0 0 0

   2 C    3     1.4247     2.6924    9 C    0 0 0   10 C    0 0 0   15 C   -1 0 0
   2 C    5     2.4677     4.6633    1 C    0 0 0    3 C    0 0 0    4 C    0 0 0
                                     5 C    0 0 0    6 C   -1 0 0
   2 C    3     2.8495     5.3847   13 C    0 0 0   14 C   -1 0 0   16 C   -1 0 0
   2 C    6     3.7695     7.1233    8 C    0 0 0    8 C    0 1 0   11 C   -1 0 0
                                    11 C    0 1 0   12 C    0 0 0   12 C   -1 0 0
   2 C    3     4.2742     8.0771    7 C    0 0 0    7 C   -1-1 0    7 C   -1 0 0
   2 C    5     4.9354     9.3266    1 C    0 1 0    3 C    0-1 0    4 C   -1 0 0
                                     5 C   -1-1 0    6 C    0 1 0

   3 C    3     1.4247     2.6924    8 C    0 1 0   10 C    0 0 0   16 C   -1 0 0
   3 C    4     2.4677     4.6633    1 C    0 1 0    2 C    0 0 0    5 C    0 0 0
                                     7 C   -1 0 0
   3 C    3     2.8495     5.3847   11 C    0 1 0   14 C   -1 1 0   15 C   -1 0 0
   3 C    6     3.7695     7.1233    9 C    0 0 0    9 C    0 1 0   12 C   -1 0 0
                                    12 C    0 1 0   13 C    0 0 0   13 C   -1 0 0
   3 C    6     4.2742     8.0771    4 C    0 0 0    4 C   -1 0 0    4 C    0 1 0
                                     6 C   -1 0 0    6 C    0 1 0    6 C   -1 1 0
   3 C    4     4.9354     9.3266    1 C    0 0 0    2 C    0 1 0    5 C   -1 0 0
                                     7 C    0 0 0

   4 C    3     1.4247     2.6924    9 C    0 0 0   12 C    0 0 0   13 C    0 0 0
   4 C    4     2.4677     4.6633    1 C    0 0 0    2 C    0 0 0    5 C    0 0 0
                                     7 C    0 0 0
   4 C    3     2.8495     5.3847    8 C    0 0 0   10 C    0 0 0   16 C    0 0 0
   4 C    6     3.7695     7.1233   11 C    0 0 0   11 C    0 1 0   14 C   -1 0 0
                                    14 C    0 1 0   15 C    0 0 0   15 C   -1 0 0
   4 C    6     4.2742     8.0771    3 C    0 0 0    3 C    1 0 0    3 C    0-1 0
                                     6 C    0 0 0    6 C   -1 0 0    6 C    0 1 0
   4 C    4     4.9354     9.3266    1 C    1 1 0    2 C    1 0 0    5 C    0-1 0
                                     7 C   -1-1 0

   5 C    3     1.4247     2.6924   10 C    0 0 0   11 C    0 1 0   13 C    0 0 0
   5 C    5     2.4677     4.6633    2 C    0 0 0    3 C    0 0 0    4 C    0 0 0
                                     6 C    0 1 0    7 C    0 0 0
   5 C    3     2.8495     5.3847    8 C    0 1 0    9 C    0 0 0   14 C    0 1 0
   5 C    6     3.7695     7.1233   12 C    0 0 0   12 C    0 1 0   15 C   -1 0 0
                                    15 C    0 1 0   16 C    0 0 0   16 C   -1 0 0
   5 C    3     4.2742     8.0771    1 C    0 0 0    1 C    1 1 0    1 C    0 1 0
   5 C    5     4.9354     9.3266    2 C    1 1 0    3 C    1 0 0    4 C    0 1 0
                                     6 C   -1 0 0    7 C   -1 0 0

   6 C    3     1.4247     2.6924   11 C    0 0 0   14 C    0 0 0   15 C    0 0 0
   6 C    4     2.4677     4.6633    1 C    1 0 0    2 C    1 0 0    5 C    0-1 0
                                     7 C    0-1 0
   6 C    3     2.8495     5.3847    9 C    1 0 0   12 C    0 0 0   13 C    0-1 0
   6 C    6     3.7695     7.1233    8 C    0 0 0    8 C    1 0 0   10 C    1 0 0
                                    10 C    0-1 0   16 C    0 0 0   16 C    0-1 0
   6 C    6     4.2742     8.0771    3 C    1 0 0    3 C    0-1 0    3 C    1-1 0
                                     4 C    0 0 0    4 C    1 0 0    4 C    0-1 0
   6 C    4     4.9354     9.3266    1 C    0 0 0    2 C    0-1 0    5 C    1 0 0
                                     7 C    0 0 0

   7 C    3     1.4247     2.6924   13 C    0 0 0   14 C    0 1 0   16 C    0 0 0
   7 C    5     2.4677     4.6633    1 C    1 1 0    3 C    1 0 0    4 C    0 0 0
                                     5 C    0 0 0    6 C    0 1 0
   7 C    3     2.8495     5.3847    8 C    1 1 0   11 C    0 1 0   12 C    0 0 0
   7 C    6     3.7695     7.1233    9 C    0 0 0    9 C    1 1 0   10 C    0 0 0
                                    10 C    1 0 0   15 C    0 0 0   15 C    0 1 0
   7 C    3     4.2742     8.0771    2 C    0 0 0    2 C    1 1 0    2 C    1 0 0
   7 C    5     4.9354     9.3266    1 C    0 0 0    3 C    0 0 0    4 C    1 1 0
                                     5 C    1 0 0    6 C    0 0 0

   8 C    2     1.4247     2.6924    1 C    0 0 0    3 C    0-1 0
   8 C    6     2.4677     4.6633    9 C    0 0 0   10 C    0-1 0   11 C    0 0 0
                                    12 C    0 0 0   14 C   -1 0 0   16 C   -1-1 0
   8 C    3     2.8495     5.3847    4 C    0 0 0    5 C    0-1 0    7 C   -1-1 0
   8 C    4     3.7695     7.1233    2 C    0 0 0    2 C    0-1 0    6 C    0 0 0
                                     6 C   -1 0 0
   8 C    6     4.2742     8.0771   13 C    0 0 0   13 C   -1-1 0   13 C    0-1 0
                                    15 C    0 0 0   15 C   -1-1 0   15 C   -1 0 0
   8 C    6     4.9354     9.3266    9 C    0-1 0   10 C    0 0 0   11 C   -1 0 0
                                    12 C   -1-1 0   14 C    0 0 0   16 C    0 0 0

   9 C    3     1.4247     2.6924    1 C    0 0 0    2 C    0 0 0    4 C    0 0 0
   9 C    6     2.4677     4.6633    8 C    0 0 0   10 C    0 0 0   12 C    0 0 0
                                    13 C    0 0 0   14 C   -1 0 0   15 C   -1 0 0
   9 C    2     2.8495     5.3847    5 C    0 0 0    6 C   -1 0 0
   9 C    4     3.7695     7.1233    3 C    0 0 0    3 C    0-1 0    7 C    0 0 0
                                     7 C   -1-1 0
   9 C    6     4.2742     8.0771   11 C    0 0 0   11 C   -1 0 0   11 C    0 1 0
                                    16 C    0 0 0   16 C   -1-1 0   16 C   -1 0 0
   9 C    6     4.9354     9.3266    8 C    0 1 0   10 C    0-1 0   12 C   -1 0 0
                                    13 C   -1-1 0   14 C    0 1 0   15 C    0 0 0

  10 C    3     1.4247     2.6924    2 C    0 0 0    3 C    0 0 0    5 C    0 0 0
  10 C    6     2.4677     4.6633    8 C    0 1 0    9 C    0 0 0   11 C    0 1 0
                                    13 C    0 0 0   15 C   -1 0 0   16 C   -1 0 0
  10 C    1     2.8495     5.3847    4 C    0 0 0
  10 C    6     3.7695     7.1233    1 C    0 0 0    1 C    0 1 0    6 C   -1 0 0
                                     6 C    0 1 0    7 C    0 0 0    7 C   -1 0 0
  10 C    6     4.2742     8.0771   12 C    0 0 0   12 C   -1 0 0   12 C    0 1 0
                                    14 C   -1 0 0   14 C    0 1 0   14 C   -1 1 0
  10 C    6     4.9354     9.3266    8 C    0 0 0    9 C    0 1 0   11 C   -1 0 0
                                    13 C   -1 0 0   15 C    0 1 0   16 C    0 0 0

  11 C    2     1.4247     2.6924    5 C    0-1 0    6 C    0 0 0
  11 C    6     2.4677     4.6633    8 C    0 0 0   10 C    0-1 0   12 C    0 0 0
                                    13 C    0-1 0   14 C    0 0 0   15 C    0 0 0
  11 C    2     2.8495     5.3847    3 C    0-1 0    7 C    0-1 0
  11 C    6     3.7695     7.1233    1 C    0 0 0    1 C    1 0 0    2 C    1 0 0
                                     2 C    0-1 0    4 C    0 0 0    4 C    0-1 0
  11 C    6     4.2742     8.0771    9 C    0 0 0    9 C    1 0 0    9 C    0-1 0
                                    16 C    0 0 0   16 C   -1-1 0   16 C    0-1 0
  11 C    6     4.9354     9.3266    8 C    1 0 0   10 C    1 0 0   12 C    0-1 0
                                    13 C    0 0 0   14 C   -1 0 0   15 C   -1-1 0

  12 C    1     1.4247     2.6924    4 C    0 0 0
  12 C    6     2.4677     4.6633    8 C    0 0 0    9 C    0 0 0   11 C    0 0 0
                                    13 C    0 0 0   15 C    0 0 0   16 C    0 0 0
  12 C    3     2.8495     5.3847    1 C    0 0 0    6 C    0 0 0    7 C    0 0 0
  12 C    6     3.7695     7.1233    2 C    0 0 0    2 C    1 0 0    3 C    1 0 0
                                     3 C    0-1 0    5 C    0 0 0    5 C    0-1 0
  12 C    6     4.2742     8.0771   10 C    0 0 0   10 C    1 0 0   10 C    0-1 0
                                    14 C    0 0 0   14 C   -1 0 0   14 C    0 1 0
  12 C    6     4.9354     9.3266    8 C    1 1 0    9 C    1 0 0   11 C    0 1 0
                                    13 C    0-1 0   15 C   -1 0 0   16 C   -1-1 0

  13 C    3     1.4247     2.6924    4 C    0 0 0    5 C    0 0 0    7 C    0 0 0
  13 C    6     2.4677     4.6633    9 C    0 0 0   10 C    0 0 0   11 C    0 1 0
                                    12 C    0 0 0   14 C    0 1 0   16 C    0 0 0
  13 C    2     2.8495     5.3847    2 C    0 0 0    6 C    0 1 0
  13 C    4     3.7695     7.1233    1 C    0 0 0    1 C    1 1 0    3 C    0 0 0
                                     3 C    1 0 0
  13 C    6     4.2742     8.0771    8 C    0 0 0    8 C    1 1 0    8 C    0 1 0
                                    15 C    0 0 0   15 C   -1 0 0   15 C    0 1 0
  13 C    6     4.9354     9.3266    9 C    1 1 0   10 C    1 0 0   11 C    0 0 0
                                    12 C    0 1 0   14 C   -1 0 0   16 C   -1 0 0

  14 C    3     1.4247     2.6924    1 C    1 0 0    6 C    0 0 0    7 C    0-1 0
  14 C    6     2.4677     4.6633    8 C    1 0 0    9 C    1 0 0   11 C    0 0 0
                                    13 C    0-1 0   15 C    0 0 0   16 C    0-1 0
  14 C    3     2.8495     5.3847    2 C    1 0 0    3 C    1-1 0    5 C    0-1 0
  14 C    2     3.7695     7.1233    4 C    1 0 0    4 C    0-1 0
  14 C    6     4.2742     8.0771   10 C    1 0 0   10 C    0-1 0   10 C    1-1 0
                                    12 C    0 0 0   12 C    1 0 0   12 C    0-1 0
  14 C    6     4.9354     9.3266    8 C    0 0 0    9 C    0-1 0   11 C    1 0 0
                                    13 C    1 0 0   15 C    0-1 0   16 C    0 0 0

  15 C    2     1.4247     2.6924    2 C    1 0 0    6 C    0 0 0
  15 C    6     2.4677     4.6633    9 C    1 0 0   10 C    1 0 0   11 C    0 0 0
                                    12 C    0 0 0   14 C    0 0 0   16 C    0 0 0
  15 C    2     2.8495     5.3847    1 C    1 0 0    3 C    1 0 0
  15 C    6     3.7695     7.1233    4 C    0 0 0    4 C    1 0 0    5 C    1 0 0
                                     5 C    0-1 0    7 C    0 0 0    7 C    0-1 0
  15 C    6     4.2742     8.0771    8 C    0 0 0    8 C    1 1 0    8 C    1 0 0
                                    13 C    0 0 0   13 C    1 0 0   13 C    0-1 0
  15 C    6     4.9354     9.3266    9 C    0 0 0   10 C    0-1 0   11 C    1 1 0
                                    12 C    1 0 0   14 C    0 1 0   16 C    0-1 0

  16 C    2     1.4247     2.6924    3 C    1 0 0    7 C    0 0 0
  16 C    6     2.4677     4.6633    8 C    1 1 0   10 C    1 0 0   12 C    0 0 0
                                    13 C    0 0 0   14 C    0 1 0   15 C    0 0 0
  16 C    3     2.8495     5.3847    1 C    1 1 0    2 C    1 0 0    4 C    0 0 0
  16 C    4     3.7695     7.1233    5 C    0 0 0    5 C    1 0 0    6 C    0 0 0
                                     6 C    0 1 0
  16 C    6     4.2742     8.0771    9 C    0 0 0    9 C    1 1 0    9 C    1 0 0
                                    11 C    0 0 0   11 C    1 1 0   11 C    0 1 0
  16 C    6     4.9354     9.3266    8 C    0 0 0   10 C    0 0 0   12 C    1 1 0
                                    13 C    1 0 0   14 C    0 0 0   15 C    0 1 0


 SYMMETRY ALLOWED INTERNAL DEGREE(S) OF FREEDOM:  45
 TTTTTTTTTTTTTTTTTTTTTTTTTTTTTT SYMM        TELAPSE        2.30 TCPU        0.95
 TTTTTTTTTTTTTTTTTTTTTTTTTTTTTT INT_SCREEN  TELAPSE        2.31 TCPU        0.95

 *******************************************************************************
 *                             OPTIMIZATION STARTS                             *
 *******************************************************************************
 RECLASIFICATION OF INDICES FOR INTEGRAL CALC ACCORDING TO DIFFERENT CRITERIA:
           FIXDELTE                  FIXDELTX              FIXDELTN
          0.10000000               0.80000000                 45
 DEFAULT MAX NUM OF POINTS  100
 *******************************************************************************

 *******************************************************************************
 COORDINATE OPTIMIZATION - POINT    1
 INFORMATION **** EXCBUF **** EXCH. BIPO BUFFER: WORDS USED =           0

 DFT PARAMETERS

     ATOM       ELECTRONS   NET CHARGE   R(ANGSTROM)
   1   6  C       6.0000      0.0000     0.77000000

 SIZE OF GRID=     531420
 TTTTTTTTTTTTTTTTTTTTTTTTTTTTTT MAKE_GRID2  TELAPSE        2.69 TCPU        1.33
 BECKE WEIGHT FUNCTION
 RADSAFE =     2.00
 TOLERANCES - DENSITY:10**- 6; POTENTIAL:10**- 9; GRID WGT:10**-14

 RADIAL INTEGRATION  - INTERVALS (POINTS,UPPER LIMIT):            1( 75,  4.0*R)

 ANGULAR INTEGRATION - INTERVALS (ACCURACY LEVEL [N. POINTS] UPPER LIMIT):
  1(  4[  86]   0.2)  2(  8[ 194]   0.5)  3( 12[ 350]   0.9)  4( 16[ 974]   3.5)
  5( 12[ 350]9999.0)
 TTTTTTTTTTTTTTTTTTTTTTTTTTTTTT INT_CALC    TELAPSE        2.72 TCPU        1.36

 *******************************************************************************
 Final                                                                           
 CRYSTAL - SCF - TYPE OF CALCULATION :  RESTRICTED CLOSED SHELL
 *******************************************************************************

 CAPPA:IS1  8;IS2  8;IS3  8; K PTS MONK NET 260; SYMMOPS:K SPACE   2;G SPACE   1

 TTTTTTTTTTTTTTTTTTTTTTTTTTTTTT SDIK        TELAPSE        2.78 TCPU        1.42

 AAAAAAAAAAAAAAAAAAAAAAAAAAAAAAAAAAAAAAAAAAAAAAAAAAAAAAAAAAAAAAAAAAAAAAAAAAAAAAA
         ATOMIC WAVEFUNCTION(S)


 NUCLEAR CHARGE  6.0  SYMMETRY SPECIES            S    P
 N. ELECTRONS    6.0  NUMBER OF PRIMITIVE GTOS   10    6
                      NUMBER OF CONTRACTED GTOS   4    3
                      NUMBER OF CLOSED SHELLS     2    0
                      OPEN SHELL OCCUPATION       0    2

  ZNUC SCFIT  TOTAL HF ENERGY   KINETIC ENERGY   VIRIAL THEOREM ACCURACY
   6.0  10   -3.768111494E+01  3.771190961E+01 -1.999183423E+00  3.4E-06

 AAAAAAAAAAAAAAAAAAAAAAAAAAAAAAAAAAAAAAAAAAAAAAAAAAAAAAAAAAAAAAAAAAAAAAAAAAAAAAA

 CHARGE NORMALIZATION FACTOR   1.00000000
 TOTAL ATOMIC CHARGES:
   6.0000000   6.0000000   6.0000000   6.0000000   6.0000000   6.0000000
   6.0000000   6.0000000   6.0000000   6.0000000   6.0000000   6.0000000
   6.0000000   6.0000000   6.0000000   6.0000000
 TTTTTTTTTTTTTTTTTTTTTTTTTTTTTT MOQGAD      TELAPSE        2.80 TCPU        1.44
 TTTTTTTTTTTTTTTTTTTTTTTTTTTTTT SHELLXN     TELAPSE        3.46 TCPU        2.10
 TTTTTTTTTTTTTTTTTTTTTTTTTTTTTT MONMO3      TELAPSE        3.69 TCPU        2.33
 NUMERICALLY INTEGRATED DENSITY     95.9998083674
 TTTTTTTTTTTTTTTTTTTTTTTTTTTTTT NUMDFT      TELAPSE        3.86 TCPU        2.50
 CYC   0 ETOT(AU) -6.125919687028E+02 DETOT -6.13E+02 tst  0.00E+00 PX  1.00E+00
 TTTTTTTTTTTTTTTTTTTTTTTTTTTTTT DIIS        TELAPSE        3.87 TCPU        2.51
 TTTTTTTTTTTTTTTTTTTTTTTTTTTTTT FDIK        TELAPSE        4.07 TCPU        2.70
 POSSIBLY CONDUCTING STATE - EFERMI(AU) -2.2693365E-01 (RES. CHARGE  2.38E-10;IT. 12)
 TTTTTTTTTTTTTTTTTTTTTTTTTTTTTT PDIG        TELAPSE        4.18 TCPU        2.82
 CHARGE NORMALIZATION FACTOR   1.00000000
 TOTAL ATOMIC CHARGES:
   6.0549194   6.0666961   6.1248768   6.0909721   6.0666947   6.0528272
   6.0549192   6.0525754   5.9511556   6.1497287   5.8392630   5.6454638
   5.9511567   6.0069147   5.8392611   6.0525754
 TTTTTTTTTTTTTTTTTTTTTTTTTTTTTT MOQGAD      TELAPSE        4.18 TCPU        2.82
 TTTTTTTTTTTTTTTTTTTTTTTTTTTTTT SHELLXN     TELAPSE        4.94 TCPU        3.58
 TTTTTTTTTTTTTTTTTTTTTTTTTTTTTT MONMO3      TELAPSE        5.19 TCPU        3.83
 NUMERICALLY INTEGRATED DENSITY     95.9998585154
 TTTTTTTTTTTTTTTTTTTTTTTTTTTTTT NUMDFT      TELAPSE        5.49 TCPU        4.13
 CYC   1 ETOT(AU) -6.085679040570E+02 DETOT  4.02E+00 tst  0.00E+00 PX  1.00E+00
 TTTTTTTTTTTTTTTTTTTTTTTTTTTTTT DIIS        TELAPSE        5.51 TCPU        4.14
 DIIS TEST: 0.92564E+00 AT SCF   CYCLE   1 - MIX   30 %
 TTTTTTTTTTTTTTTTTTTTTTTTTTTTTT FDIK        TELAPSE        5.72 TCPU        4.35
 POSSIBLY CONDUCTING STATE - EFERMI(AU) -1.8825169E-01 (RES. CHARGE  4.05E-12;IT. 14)
 TTTTTTTTTTTTTTTTTTTTTTTTTTTTTT PDIG        TELAPSE        5.82 TCPU        4.46
 CHARGE NORMALIZATION FACTOR   1.00000000
 TOTAL ATOMIC CHARGES:
   5.8028879   5.8129514   5.7030220   5.7928063   5.8129500   5.8332788
   5.8028878   5.7383367   6.0160129   5.4615239   6.4269368   7.7641956
   6.0160140   5.8509253   6.4269342   5.7383364
 TTTTTTTTTTTTTTTTTTTTTTTTTTTTTT MOQGAD      TELAPSE        5.82 TCPU        4.46
 TTTTTTTTTTTTTTTTTTTTTTTTTTTTTT SHELLXN     TELAPSE        6.59 TCPU        5.22
 TTTTTTTTTTTTTTTTTTTTTTTTTTTTTT MONMO3      TELAPSE        6.83 TCPU        5.47
 NUMERICALLY INTEGRATED DENSITY     95.9998303148
 TTTTTTTTTTTTTTTTTTTTTTTTTTTTTT NUMDFT      TELAPSE        7.14 TCPU        5.77
 CYC   2 ETOT(AU) -6.077731897082E+02 DETOT  7.95E-01 tst  2.82E-02 PX  3.12E-01
 TTTTTTTTTTTTTTTTTTTTTTTTTTTTTT DIIS        TELAPSE        7.15 TCPU        5.79
 DIIS TEST: 0.73038E+01 AT SCF   CYCLE   2 - DIIS ACTIVE - HISTORY:     2 CYCLES
 TTTTTTTTTTTTTTTTTTTTTTTTTTTTTT FDIK        TELAPSE        7.37 TCPU        6.00
 POSSIBLY CONDUCTING STATE - EFERMI(AU) -1.4148256E-01 (RES. CHARGE  4.83E-13;IT. 12)
 TTTTTTTTTTTTTTTTTTTTTTTTTTTTTT PDIG        TELAPSE        7.48 TCPU        6.11
 CHARGE NORMALIZATION FACTOR   1.00000000
 TOTAL ATOMIC CHARGES:
   5.8968918   5.9506316   5.9294075   5.8267231   5.9506301   5.8672840
   5.8968917   6.4350920   6.0555208   6.0862529   6.0454042   5.4253181
   6.0555218   6.0979354   6.0454029   6.4350921
 TTTTTTTTTTTTTTTTTTTTTTTTTTTTTT MOQGAD      TELAPSE        7.48 TCPU        6.11
 TTTTTTTTTTTTTTTTTTTTTTTTTTTTTT SHELLXN     TELAPSE        8.25 TCPU        6.88
 TTTTTTTTTTTTTTTTTTTTTTTTTTTTTT MONMO3      TELAPSE        8.50 TCPU        7.12
 NUMERICALLY INTEGRATED DENSITY     95.9998178702
 TTTTTTTTTTTTTTTTTTTTTTTTTTTTTT NUMDFT      TELAPSE        8.92 TCPU        7.54
 CYC   3 ETOT(AU) -6.085649263336E+02 DETOT -7.92E-01 tst  1.52E-01 PX  2.92E-01
 TTTTTTTTTTTTTTTTTTTTTTTTTTTTTT DIIS        TELAPSE        8.93 TCPU        7.56
 DIIS TEST: 0.92511E+00 AT SCF   CYCLE   3 - DIIS ACTIVE - HISTORY:     3 CYCLES
 TTTTTTTTTTTTTTTTTTTTTTTTTTTTTT FDIK        TELAPSE        9.13 TCPU        7.75
 POSSIBLY CONDUCTING STATE - EFERMI(AU) -1.5748465E-01 (RES. CHARGE  2.06E-11;IT. 12)
 TTTTTTTTTTTTTTTTTTTTTTTTTTTTTT PDIG        TELAPSE        9.24 TCPU        7.87
 CHARGE NORMALIZATION FACTOR   1.00000000
 TOTAL ATOMIC CHARGES:
   5.9996435   6.0314846   6.0210737   6.0671897   6.0314832   5.9902698
   5.9996434   5.8152759   6.0729764   6.0132574   5.6905865   6.6790806
   6.0729775   6.0091987   5.6905834   5.8152757
 TTTTTTTTTTTTTTTTTTTTTTTTTTTTTT MOQGAD      TELAPSE        9.24 TCPU        7.87
 TTTTTTTTTTTTTTTTTTTTTTTTTTTTTT SHELLXN     TELAPSE       10.01 TCPU        8.63
 TTTTTTTTTTTTTTTTTTTTTTTTTTTTTT MONMO3      TELAPSE       10.26 TCPU        8.88
 NUMERICALLY INTEGRATED DENSITY     95.9998246716
 TTTTTTTTTTTTTTTTTTTTTTTTTTTTTT NUMDFT      TELAPSE       10.55 TCPU        9.18
 CYC   4 ETOT(AU) -6.085841761265E+02 DETOT -1.92E-02 tst  1.17E-02 PX  2.27E-01
 TTTTTTTTTTTTTTTTTTTTTTTTTTTTTT DIIS        TELAPSE       10.57 TCPU        9.20
 DIIS TEST: 0.81380E+00 AT SCF   CYCLE   4 - DIIS ACTIVE - HISTORY:     4 CYCLES
 TTTTTTTTTTTTTTTTTTTTTTTTTTTTTT FDIK        TELAPSE       10.78 TCPU        9.40
 POSSIBLY CONDUCTING STATE - EFERMI(AU) -1.6694150E-01 (RES. CHARGE  4.15E-12;IT. 20)
 TTTTTTTTTTTTTTTTTTTTTTTTTTTTTT PDIG        TELAPSE       10.90 TCPU        9.52
 CHARGE NORMALIZATION FACTOR   1.00000000
 TOTAL ATOMIC CHARGES:
   5.9825162   6.0075723   6.0223467   5.9571590   6.0075707   6.0333080
   5.9825161   5.9068610   5.9058591   6.0371056   6.3337219   5.6585656
   5.9058602   6.0184563   6.3337204   5.9068611
 TTTTTTTTTTTTTTTTTTTTTTTTTTTTTT MOQGAD      TELAPSE       10.90 TCPU        9.52
 TTTTTTTTTTTTTTTTTTTTTTTTTTTTTT SHELLXN     TELAPSE       11.66 TCPU       10.28
 TTTTTTTTTTTTTTTTTTTTTTTTTTTTTT MONMO3      TELAPSE       11.91 TCPU       10.53
 NUMERICALLY INTEGRATED DENSITY     95.9998306232
 TTTTTTTTTTTTTTTTTTTTTTTTTTTTTT NUMDFT      TELAPSE       12.21 TCPU       10.83
 CYC   5 ETOT(AU) -6.086104719466E+02 DETOT -2.63E-02 tst  6.59E-03 PX  2.45E-01
 TTTTTTTTTTTTTTTTTTTTTTTTTTTTTT DIIS        TELAPSE       12.22 TCPU       10.84
 DIIS TEST: 0.78141E+00 AT SCF   CYCLE   5 - DIIS ACTIVE - HISTORY:     5 CYCLES
 TTTTTTTTTTTTTTTTTTTTTTTTTTTTTT FDIK        TELAPSE       12.44 TCPU       11.06
 POSSIBLY CONDUCTING STATE - EFERMI(AU) -1.7013696E-01 (RES. CHARGE  4.41E-12;IT. 12)
 TTTTTTTTTTTTTTTTTTTTTTTTTTTTTT PDIG        TELAPSE       12.55 TCPU       11.17
 CHARGE NORMALIZATION FACTOR   1.00000000
 TOTAL ATOMIC CHARGES:
   5.9794278   5.9798478   6.0213078   5.9556190   5.9798463   5.9834012
   5.9794277   6.1385591   5.9562605   5.9861959   5.9952112   5.9664951
   5.9562615   5.9883704   5.9952095   6.1385591
 TTTTTTTTTTTTTTTTTTTTTTTTTTTTTT MOQGAD      TELAPSE       12.55 TCPU       11.17
 TTTTTTTTTTTTTTTTTTTTTTTTTTTTTT SHELLXN     TELAPSE       13.32 TCPU       11.93
 TTTTTTTTTTTTTTTTTTTTTTTTTTTTTT MONMO3      TELAPSE       13.56 TCPU       12.18
 NUMERICALLY INTEGRATED DENSITY     95.9998297918
 TTTTTTTTTTTTTTTTTTTTTTTTTTTTTT NUMDFT      TELAPSE       13.99 TCPU       12.60
 CYC   6 ETOT(AU) -6.087013102832E+02 DETOT -9.08E-02 tst  1.69E-03 PX  8.30E-02
 TTTTTTTTTTTTTTTTTTTTTTTTTTTTTT DIIS        TELAPSE       14.01 TCPU       12.62
 DIIS TEST: 0.53926E-01 AT SCF   CYCLE   6 - DIIS ACTIVE - HISTORY:     6 CYCLES
 TTTTTTTTTTTTTTTTTTTTTTTTTTTTTT FDIK        TELAPSE       14.20 TCPU       12.81
 POSSIBLY CONDUCTING STATE - EFERMI(AU) -1.7154988E-01 (RES. CHARGE  1.33E-10;IT. 16)
 TTTTTTTTTTTTTTTTTTTTTTTTTTTTTT PDIG        TELAPSE       14.31 TCPU       12.92
 CHARGE NORMALIZATION FACTOR   1.00000000
 TOTAL ATOMIC CHARGES:
   5.9450636   6.0018624   5.9563446   5.9489687   6.0018611   5.9412346
   5.9450635   6.0125015   6.0524041   6.0962761   6.0219499   5.9448880
   6.0524054   6.0447276   6.0219471   6.0125017
 TTTTTTTTTTTTTTTTTTTTTTTTTTTTTT MOQGAD      TELAPSE       14.31 TCPU       12.92
 TTTTTTTTTTTTTTTTTTTTTTTTTTTTTT SHELLXN     TELAPSE       15.08 TCPU       13.68
 TTTTTTTTTTTTTTTTTTTTTTTTTTTTTT MONMO3      TELAPSE       15.32 TCPU       13.93
 NUMERICALLY INTEGRATED DENSITY     95.9998294151
 TTTTTTTTTTTTTTTTTTTTTTTTTTTTTT NUMDFT      TELAPSE       15.75 TCPU       14.35
 CYC   7 ETOT(AU) -6.087000130035E+02 DETOT  1.30E-03 tst  2.43E-04 PX  3.08E-02
 TTTTTTTTTTTTTTTTTTTTTTTTTTTTTT DIIS        TELAPSE       15.76 TCPU       14.37
 DIIS TEST: 0.71893E-01 AT SCF   CYCLE   7 - DIIS ACTIVE - HISTORY:     7 CYCLES
 TTTTTTTTTTTTTTTTTTTTTTTTTTTTTT FDIK        TELAPSE       15.98 TCPU       14.58
 POSSIBLY CONDUCTING STATE - EFERMI(AU) -1.7168664E-01 (RES. CHARGE  7.67E-11;IT. 10)
 TTTTTTTTTTTTTTTTTTTTTTTTTTTTTT PDIG        TELAPSE       16.09 TCPU       14.69
 CHARGE NORMALIZATION FACTOR   1.00000000
 TOTAL ATOMIC CHARGES:
   5.9705016   5.9904497   6.0045860   5.9617912   5.9904480   5.9751182
   5.9705014   6.0611671   6.0130424   5.9841930   5.9072533   6.1568574
   6.0130426   6.0326287   5.9072534   6.0611662
 TTTTTTTTTTTTTTTTTTTTTTTTTTTTTT MOQGAD      TELAPSE       16.09 TCPU       14.69
 TTTTTTTTTTTTTTTTTTTTTTTTTTTTTT SHELLXN     TELAPSE       16.86 TCPU       15.46
 TTTTTTTTTTTTTTTTTTTTTTTTTTTTTT MONMO3      TELAPSE       17.10 TCPU       15.71
 NUMERICALLY INTEGRATED DENSITY     95.9998291823
 TTTTTTTTTTTTTTTTTTTTTTTTTTTTTT NUMDFT      TELAPSE       17.53 TCPU       16.13
 CYC   8 ETOT(AU) -6.087054933366E+02 DETOT -5.48E-03 tst  3.40E-04 PX  5.63E-02
 TTTTTTTTTTTTTTTTTTTTTTTTTTTTTT DIIS        TELAPSE       17.55 TCPU       16.15
 DIIS TEST: 0.20697E-01 AT SCF   CYCLE   8 - DIIS ACTIVE - HISTORY:     8 CYCLES
 TTTTTTTTTTTTTTTTTTTTTTTTTTTTTT FDIK        TELAPSE       17.74 TCPU       16.34
 POSSIBLY CONDUCTING STATE - EFERMI(AU) -1.7206873E-01 (RES. CHARGE  6.32E-13;IT. 10)
 TTTTTTTTTTTTTTTTTTTTTTTTTTTTTT PDIG        TELAPSE       17.85 TCPU       16.45
 CHARGE NORMALIZATION FACTOR   1.00000000
 TOTAL ATOMIC CHARGES:
   5.9672491   5.9939713   6.0041654   5.9651528   5.9939703   5.9659567
   5.9672492   6.0567660   6.0036742   6.0349096   5.9435636   6.0933174
   6.0036775   6.0060514   5.9435570   6.0567684
 TTTTTTTTTTTTTTTTTTTTTTTTTTTTTT MOQGAD      TELAPSE       17.85 TCPU       16.45
 TTTTTTTTTTTTTTTTTTTTTTTTTTTTTT SHELLXN     TELAPSE       18.62 TCPU       17.21
 TTTTTTTTTTTTTTTTTTTTTTTTTTTTTT MONMO3      TELAPSE       18.86 TCPU       17.46
 NUMERICALLY INTEGRATED DENSITY     95.9998293785
 TTTTTTTTTTTTTTTTTTTTTTTTTTTTTT NUMDFT      TELAPSE       19.29 TCPU       17.88
 CYC   9 ETOT(AU) -6.087079979347E+02 DETOT -2.50E-03 tst  7.20E-05 PX  1.96E-02
 TTTTTTTTTTTTTTTTTTTTTTTTTTTTTT DIIS        TELAPSE       19.31 TCPU       17.91
 DIIS TEST: 0.36366E-02 AT SCF   CYCLE   9 - DIIS ACTIVE - HISTORY:     9 CYCLES
 TTTTTTTTTTTTTTTTTTTTTTTTTTTTTT FDIK        TELAPSE       19.50 TCPU       18.10
 POSSIBLY CONDUCTING STATE - EFERMI(AU) -1.7202508E-01 (RES. CHARGE  2.36E-11;IT. 10)
 TTTTTTTTTTTTTTTTTTTTTTTTTTTTTT PDIG        TELAPSE       19.62 TCPU       18.21
 CHARGE NORMALIZATION FACTOR   1.00000000
 TOTAL ATOMIC CHARGES:
   5.9701843   5.9909510   5.9916019   5.9623786   5.9909481   5.9697696
   5.9701834   6.0579024   6.0090829   6.0019238   5.9770928   6.0515397
   6.0090734   6.0123734   5.9771038   6.0578909
 TTTTTTTTTTTTTTTTTTTTTTTTTTTTTT MOQGAD      TELAPSE       19.62 TCPU       18.21
 TTTTTTTTTTTTTTTTTTTTTTTTTTTTTT SHELLXN     TELAPSE       20.38 TCPU       18.97
 TTTTTTTTTTTTTTTTTTTTTTTTTTTTTT MONMO3      TELAPSE       20.63 TCPU       19.22
 NUMERICALLY INTEGRATED DENSITY     95.9998295506
 TTTTTTTTTTTTTTTTTTTTTTTTTTTTTT NUMDFT      TELAPSE       21.05 TCPU       19.64
 CYC  10 ETOT(AU) -6.087083441199E+02 DETOT -3.46E-04 tst  1.36E-05 PX  1.17E-02
 TTTTTTTTTTTTTTTTTTTTTTTTTTTTTT DIIS        TELAPSE       21.07 TCPU       19.66
 DIIS TEST: 0.11242E-02 AT SCF   CYCLE  10 - DIIS ACTIVE - HISTORY:    10 CYCLES
 TTTTTTTTTTTTTTTTTTTTTTTTTTTTTT FDIK        TELAPSE       21.26 TCPU       19.85
 POSSIBLY CONDUCTING STATE - EFERMI(AU) -1.7223740E-01 (RES. CHARGE  2.63E-13;IT. 10)
 TTTTTTTTTTTTTTTTTTTTTTTTTTTTTT PDIG        TELAPSE       21.37 TCPU       19.96
 CHARGE NORMALIZATION FACTOR   1.00000000
 TOTAL ATOMIC CHARGES:
   5.9654977   5.9901426   5.9944182   5.9553747   5.9901447   5.9679388
   5.9655004   6.0571465   6.0038700   6.0223291   5.9702892   6.0673788
   6.0039017   6.0186258   5.9702586   6.0571832
 TTTTTTTTTTTTTTTTTTTTTTTTTTTTTT MOQGAD      TELAPSE       21.37 TCPU       19.96
 TTTTTTTTTTTTTTTTTTTTTTTTTTTTTT SHELLXN     TELAPSE       22.14 TCPU       20.73
 TTTTTTTTTTTTTTTTTTTTTTTTTTTTTT MONMO3      TELAPSE       22.38 TCPU       20.97
 NUMERICALLY INTEGRATED DENSITY     95.9998295676
 TTTTTTTTTTTTTTTTTTTTTTTTTTTTTT NUMDFT      TELAPSE       22.79 TCPU       21.38
 CYC  11 ETOT(AU) -6.087084658902E+02 DETOT -1.22E-04 tst  3.74E-06 PX  5.29E-03
 TTTTTTTTTTTTTTTTTTTTTTTTTTTTTT DIIS        TELAPSE       22.81 TCPU       21.40
 DIIS TEST: 0.12497E-03 AT SCF   CYCLE  11 - DIIS ACTIVE - HISTORY:    11 CYCLES
 TTTTTTTTTTTTTTTTTTTTTTTTTTTTTT FDIK        TELAPSE       23.00 TCPU       21.59
 POSSIBLY CONDUCTING STATE - EFERMI(AU) -1.7217204E-01 (RES. CHARGE  6.06E-10;IT. 10)
 TTTTTTTTTTTTTTTTTTTTTTTTTTTTTT PDIG        TELAPSE       23.11 TCPU       21.70
 CHARGE NORMALIZATION FACTOR   1.00000000
 TOTAL ATOMIC CHARGES:
   5.9662467   5.9908593   5.9973983   5.9605324   5.9908416   5.9676980
   5.9662307   6.0584003   6.0064694   6.0116596   5.9683152   6.0726794
   6.0063131   6.0097190   5.9684356   6.0582014
 TTTTTTTTTTTTTTTTTTTTTTTTTTTTTT MOQGAD      TELAPSE       23.12 TCPU       21.70
 TTTTTTTTTTTTTTTTTTTTTTTTTTTTTT SHELLXN     TELAPSE       23.88 TCPU       22.46
 TTTTTTTTTTTTTTTTTTTTTTTTTTTTTT MONMO3      TELAPSE       24.13 TCPU       22.71
 NUMERICALLY INTEGRATED DENSITY     95.9998295175
 TTTTTTTTTTTTTTTTTTTTTTTTTTTTTT NUMDFT      TELAPSE       24.42 TCPU       23.01
 CYC  12 ETOT(AU) -6.087084639042E+02 DETOT  1.99E-06 tst  1.63E-06 PX  2.96E-03
 TTTTTTTTTTTTTTTTTTTTTTTTTTTTTT DIIS        TELAPSE       24.45 TCPU       23.03
 DIIS TEST: 0.13275E-03 AT SCF   CYCLE  12 - DIIS ACTIVE - HISTORY:    12 CYCLES
 TTTTTTTTTTTTTTTTTTTTTTTTTTTTTT FDIK        TELAPSE       24.66 TCPU       23.24
 POSSIBLY CONDUCTING STATE - EFERMI(AU) -1.7212133E-01 (RES. CHARGE  3.27E-10;IT. 10)
 TTTTTTTTTTTTTTTTTTTTTTTTTTTTTT PDIG        TELAPSE       24.77 TCPU       23.35
 CHARGE NORMALIZATION FACTOR   1.00000000
 TOTAL ATOMIC CHARGES:
   5.9675730   5.9906099   5.9954706   5.9596524   5.9906654   5.9682788
   5.9676360   6.0569098   6.0037698   6.0176728   5.9693839   6.0684649
   6.0043899   6.0128353   5.9689901   6.0576974
 TTTTTTTTTTTTTTTTTTTTTTTTTTTTTT MOQGAD      TELAPSE       24.77 TCPU       23.35
 TTTTTTTTTTTTTTTTTTTTTTTTTTTTTT SHELLXN     TELAPSE       25.54 TCPU       24.12
 TTTTTTTTTTTTTTTTTTTTTTTTTTTTTT MONMO3      TELAPSE       25.78 TCPU       24.36
 NUMERICALLY INTEGRATED DENSITY     95.9998295269
 TTTTTTTTTTTTTTTTTTTTTTTTTTTTTT NUMDFT      TELAPSE       26.08 TCPU       24.66
 CYC  13 ETOT(AU) -6.087084801097E+02 DETOT -1.62E-05 tst  5.45E-07 PX  1.71E-03
 TTTTTTTTTTTTTTTTTTTTTTTTTTTTTT DIIS        TELAPSE       26.11 TCPU       24.68
 DIIS TEST: 0.47574E-05 AT SCF   CYCLE  13 - DIIS ACTIVE - HISTORY:    13 CYCLES
 TTTTTTTTTTTTTTTTTTTTTTTTTTTTTT FDIK        TELAPSE       26.32 TCPU       24.90
 POSSIBLY CONDUCTING STATE - EFERMI(AU) -1.7213429E-01 (RES. CHARGE  4.38E-11;IT.  8)
 TTTTTTTTTTTTTTTTTTTTTTTTTTTTTT PDIG        TELAPSE       26.44 TCPU       25.01
 CHARGE NORMALIZATION FACTOR   1.00000000
 TOTAL ATOMIC CHARGES:
   5.9668678   5.9909827   5.9963908   5.9590152   5.9907194   5.9683917
   5.9665512   6.0593977   6.0062668   6.0168359   5.9681363   6.0685999
   6.0031857   6.0133980   5.9697993   6.0554615
 TTTTTTTTTTTTTTTTTTTTTTTTTTTTTT MOQGAD      TELAPSE       26.44 TCPU       25.01
 TTTTTTTTTTTTTTTTTTTTTTTTTTTTTT SHELLXN     TELAPSE       27.20 TCPU       25.77
 TTTTTTTTTTTTTTTTTTTTTTTTTTTTTT MONMO3      TELAPSE       27.45 TCPU       26.02
 NUMERICALLY INTEGRATED DENSITY     95.9998295325
 TTTTTTTTTTTTTTTTTTTTTTTTTTTTTT NUMDFT      TELAPSE       27.87 TCPU       26.44
 CYC  14 ETOT(AU) -6.087084775912E+02 DETOT  2.52E-06 tst  1.79E-07 PX  6.89E-04
 TTTTTTTTTTTTTTTTTTTTTTTTTTTTTT DIIS        TELAPSE       27.89 TCPU       26.46
 DIIS TEST: 0.23210E-04 AT SCF   CYCLE  14 - DIIS ACTIVE - HISTORY:    14 CYCLES
 TTTTTTTTTTTTTTTTTTTTTTTTTTTTTT FDIK        TELAPSE       28.08 TCPU       26.65
 POSSIBLY CONDUCTING STATE - EFERMI(AU) -1.7213762E-01 (RES. CHARGE  6.18E-13;IT.  8)
 TTTTTTTTTTTTTTTTTTTTTTTTTTTTTT PDIG        TELAPSE       28.19 TCPU       26.77
 CHARGE NORMALIZATION FACTOR   1.00000000
 TOTAL ATOMIC CHARGES:
   5.9665881   5.9908153   5.9964365   5.9589841   5.9908792   5.9683557
   5.9666931   6.0568187   6.0043100   6.0167744   5.9690818   6.0686113
   6.0053019   6.0134469   5.9687912   6.0581117
 TTTTTTTTTTTTTTTTTTTTTTTTTTTTTT MOQGAD      TELAPSE       28.19 TCPU       26.77
 TTTTTTTTTTTTTTTTTTTTTTTTTTTTTT SHELLXN     TELAPSE       28.96 TCPU       27.53
 TTTTTTTTTTTTTTTTTTTTTTTTTTTTTT MONMO3      TELAPSE       29.21 TCPU       27.78
 NUMERICALLY INTEGRATED DENSITY     95.9998295337
 TTTTTTTTTTTTTTTTTTTTTTTTTTTTTT NUMDFT      TELAPSE       29.50 TCPU       28.07
 CYC  15 ETOT(AU) -6.087084803073E+02 DETOT -2.72E-06 tst  2.18E-07 PX  7.05E-04
 TTTTTTTTTTTTTTTTTTTTTTTTTTTTTT DIIS        TELAPSE       29.53 TCPU       28.10
 DIIS TEST: 0.29207E-05 AT SCF   CYCLE  15 - DIIS ACTIVE - HISTORY:    15 CYCLES
 TTTTTTTTTTTTTTTTTTTTTTTTTTTTTT FDIK        TELAPSE       29.75 TCPU       28.31
 POSSIBLY CONDUCTING STATE - EFERMI(AU) -1.7214549E-01 (RES. CHARGE  1.01E-11;IT.  8)
 TTTTTTTTTTTTTTTTTTTTTTTTTTTTTT PDIG        TELAPSE       29.86 TCPU       28.43
 CHARGE NORMALIZATION FACTOR   1.00000000
 TOTAL ATOMIC CHARGES:
   5.9668505   5.9906960   5.9961013   5.9591497   5.9907532   5.9681652
   5.9668303   6.0576256   6.0047803   6.0170683   5.9694306   6.0683652
   6.0047174   6.0134178   5.9686275   6.0574212
 TTTTTTTTTTTTTTTTTTTTTTTTTTTTTT MOQGAD      TELAPSE       29.86 TCPU       28.43
 TTTTTTTTTTTTTTTTTTTTTTTTTTTTTT SHELLXN     TELAPSE       30.63 TCPU       29.19
 TTTTTTTTTTTTTTTTTTTTTTTTTTTTTT MONMO3      TELAPSE       30.87 TCPU       29.44
 NUMERICALLY INTEGRATED DENSITY     95.9998295359
 TTTTTTTTTTTTTTTTTTTTTTTTTTTTTT NUMDFT      TELAPSE       31.29 TCPU       29.86
 CYC  16 ETOT(AU) -6.087084805817E+02 DETOT -2.74E-07 tst  1.63E-08 PX  1.85E-04
 TTTTTTTTTTTTTTTTTTTTTTTTTTTTTT DIIS        TELAPSE       31.32 TCPU       29.88
 DIIS TEST: 0.74473E-06 AT SCF   CYCLE  16 - DIIS ACTIVE - HISTORY:    16 CYCLES
 TTTTTTTTTTTTTTTTTTTTTTTTTTTTTT FDIK        TELAPSE       31.51 TCPU       30.07
 POSSIBLY CONDUCTING STATE - EFERMI(AU) -1.7214535E-01 (RES. CHARGE  2.13E-12;IT.  6)
 TTTTTTTTTTTTTTTTTTTTTTTTTTTTTT PDIG        TELAPSE       31.62 TCPU       30.19
 CHARGE NORMALIZATION FACTOR   1.00000000
 TOTAL ATOMIC CHARGES:
   5.9668468   5.9907460   5.9960878   5.9591455   5.9907276   5.9681876
   5.9668513   6.0574911   6.0047277   6.0170866   5.9689430   6.0683344
   6.0047318   6.0133939   5.9691569   6.0575421
 TTTTTTTTTTTTTTTTTTTTTTTTTTTTTT MOQGAD      TELAPSE       31.63 TCPU       30.19
 TTTTTTTTTTTTTTTTTTTTTTTTTTTTTT SHELLXN     TELAPSE       32.39 TCPU       30.95
 TTTTTTTTTTTTTTTTTTTTTTTTTTTTTT MONMO3      TELAPSE       32.64 TCPU       31.20
 NUMERICALLY INTEGRATED DENSITY     95.9998295360
 TTTTTTTTTTTTTTTTTTTTTTTTTTTTTT NUMDFT      TELAPSE       32.93 TCPU       31.49
 CYC  17 ETOT(AU) -6.087084806642E+02 DETOT -8.25E-08 tst  9.66E-09 PX  9.44E-05
 TTTTTTTTTTTTTTTTTTTTTTTTTTTTTT DIIS        TELAPSE       32.96 TCPU       31.52
 DIIS TEST: 0.12520E-06 AT SCF   CYCLE  17 - DIIS ACTIVE - HISTORY:    17 CYCLES
 TTTTTTTTTTTTTTTTTTTTTTTTTTTTTT FDIK        TELAPSE       33.18 TCPU       31.73
 POSSIBLY CONDUCTING STATE - EFERMI(AU) -1.7214439E-01 (RES. CHARGE  6.64E-10;IT.  6)
 TTTTTTTTTTTTTTTTTTTTTTTTTTTTTT PDIG        TELAPSE       33.29 TCPU       31.85
 CHARGE NORMALIZATION FACTOR   1.00000000
 TOTAL ATOMIC CHARGES:
   5.9668485   5.9907718   5.9960924   5.9591221   5.9907715   5.9682485
   5.9668485   6.0574969   6.0046894   6.0171048   5.9691001   6.0682747
   6.0046982   6.0133478   5.9690945   6.0574904
 TTTTTTTTTTTTTTTTTTTTTTTTTTTTTT MOQGAD      TELAPSE       33.29 TCPU       31.85
 TTTTTTTTTTTTTTTTTTTTTTTTTTTTTT SHELLXN     TELAPSE       34.06 TCPU       32.61
 TTTTTTTTTTTTTTTTTTTTTTTTTTTTTT MONMO3      TELAPSE       34.31 TCPU       32.86
 NUMERICALLY INTEGRATED DENSITY     95.9998295360
 TTTTTTTTTTTTTTTTTTTTTTTTTTTTTT NUMDFT      TELAPSE       34.70 TCPU       33.25
 CYC  18 ETOT(AU) -6.087084806894E+02 DETOT -2.52E-08 tst  4.82E-10 PX  2.95E-05
 TTTTTTTTTTTTTTTTTTTTTTTTTTTTTT DIIS        TELAPSE       34.73 TCPU       33.28
 DIIS TEST: 0.11099E-07 AT SCF   CYCLE  18 - DIIS ACTIVE - HISTORY:    18 CYCLES
 TTTTTTTTTTTTTTTTTTTTTTTTTTTTTT FDIK        TELAPSE       34.92 TCPU       33.47
 POSSIBLY CONDUCTING STATE - EFERMI(AU) -1.7214409E-01 (RES. CHARGE  2.01E-11;IT.  6)
 TTTTTTTTTTTTTTTTTTTTTTTTTTTTTT PDIG        TELAPSE       35.03 TCPU       33.59
 CHARGE NORMALIZATION FACTOR   1.00000000
 TOTAL ATOMIC CHARGES:
   5.9668486   5.9907589   5.9961068   5.9591247   5.9907555   5.9682274
   5.9668478   6.0574689   6.0046972   6.0171442   5.9691552   6.0681967
   6.0046754   6.0133638   5.9691422   6.0574866
 TTTTTTTTTTTTTTTTTTTTTTTTTTTTTT MOQGAD      TELAPSE       35.03 TCPU       33.59
 TTTTTTTTTTTTTTTTTTTTTTTTTTTTTT SHELLXN     TELAPSE       35.80 TCPU       34.35
 TTTTTTTTTTTTTTTTTTTTTTTTTTTTTT MONMO3      TELAPSE       36.05 TCPU       34.60
 NUMERICALLY INTEGRATED DENSITY     95.9998295362
 TTTTTTTTTTTTTTTTTTTTTTTTTTTTTT NUMDFT      TELAPSE       36.34 TCPU       34.90
 CYC  19 ETOT(AU) -6.087084806889E+02 DETOT  4.55E-10 tst  7.89E-11 PX  2.77E-05
 TTTTTTTTTTTTTTTTTTTTTTTTTTTTTT DIIS        TELAPSE       36.37 TCPU       34.92
 DIIS TEST: 0.19355E-08 AT SCF   CYCLE  19 - DIIS ACTIVE - HISTORY:    19 CYCLES
 TTTTTTTTTTTTTTTTTTTTTTTTTTTTTT FDIK        TELAPSE       36.60 TCPU       35.13
 POSSIBLY CONDUCTING STATE - EFERMI(AU) -1.7214426E-01 (RES. CHARGE  1.67E-12;IT.  6)
 TTTTTTTTTTTTTTTTTTTTTTTTTTTTTT PDIG        TELAPSE       36.71 TCPU       35.24
 CHARGE NORMALIZATION FACTOR   1.00000000
 TOTAL ATOMIC CHARGES:
   5.9668455   5.9907622   5.9960939   5.9591174   5.9907628   5.9682330
   5.9668461   6.0575029   6.0046731   6.0171478   5.9691370   6.0681913
   6.0046981   6.0133568   5.9691472   6.0574848
 TTTTTTTTTTTTTTTTTTTTTTTTTTTTTT MOQGAD      TELAPSE       36.71 TCPU       35.24
 TTTTTTTTTTTTTTTTTTTTTTTTTTTTTT SHELLXN     TELAPSE       37.47 TCPU       36.00
 +++ ENERGIES IN A.U. +++
 ::: EXT EL-POLE                                  -9.0165618387024E+02
 ::: EXT EL-SPHEROPOLE                             6.9689132401978E+00
 ::: BIELET ZONE E-E                               1.3356898276869E+03
 ::: TOTAL E-E                                     4.4100255705689E+02
 ::: TOTAL E-N + N-E                              -1.7126307773214E+03
 ::: TOTAL N-N                                     1.4309327429847E+02
 ::: KINETIC ENERGY                                6.0567444750922E+02
 ::: PSEUDO TOTAL   ENERGY                        -5.2286049845681E+02
 ::: VIRIAL COEFFICIENT                            1.0733818206945E+00
 TTTTTTTTTTTTTTTTTTTTTTTTTTTTTT MONMO3      TELAPSE       37.72 TCPU       36.25
 NUMERICALLY INTEGRATED DENSITY     95.9998295364
 TTTTTTTTTTTTTTTTTTTTTTTTTTTTTT NUMDFT      TELAPSE       38.02 TCPU       36.55
 CYC  20 ETOT(AU) -6.087084806880E+02 DETOT  9.27E-10 tst  1.40E-11 PX  2.77E-05

 == SCF ENDED - CONVERGENCE ON ENERGY      E(AU) -6.0870848068802E+02 CYCLES  20


 ENERGY EXPRESSION=HARTREE+FOCK EXCH*0.00000+(PBE        EXCH)*1.00000+PBE        CORR


 TOTAL ENERGY(DFT)(AU)( 20) -6.0870848068802E+02 DE 9.3E-10 tester 1.4E-11
 TTTTTTTTTTTTTTTTTTTTTTTTTTTTTT EDFT        TELAPSE       38.02 TCPU       36.55

 *******************************************************************************
 *                             FORCE CALCULATION                               *
 *******************************************************************************

 TTTTTTTTTTTTTTTTTTTTTTTTTTTTTT NUMDFG      TELAPSE       38.77 TCPU       37.30
 INFORMATION **** EXCPOG **** EXCH. BIPO BUFFER LENGTH (WORDS) =           0
 INFORMATION **** GENPOG **** BIPO BUFFER LENGTH (WORDS) =     1259500
 TTTTTTTTTTTTTTTTTTTTTTTTTTTTTT SHELXG      TELAPSE       41.33 TCPU       39.85

 CARTESIAN FORCES IN HARTREE/BOHR (ANALYTICAL)
   ATOM                     X                   Y                   Z
   1   6             1.370043269507E-02 -2.056071292291E-02 -6.035530834306E-09
   2   6            -8.192155334882E-03  2.862951986167E-02 -2.012568829932E-08
   3   6            -6.436007153887E-07  1.917814235909E-03  5.686433517008E-09
   4   6            -4.160023731048E-07 -3.954245254184E-02 -1.796629844221E-08
   5   6             8.191967832220E-03  2.863040671415E-02 -2.182776519422E-08
   6   6            -4.494751528195E-07  6.262360426520E-02  7.740505353166E-10
   7   6            -1.370086451142E-02 -2.056119027791E-02 -8.435042682795E-09
   8   6            -2.217546047583E-02  4.647909562106E-03  7.527910416877E-09
   9   6            -1.630046766821E-02  3.053542785609E-03  1.273295401972E-08
  10   6             6.811602659695E-08 -1.078743577597E-02  1.273654174529E-08
  11   6            -1.365881988475E-02 -1.966099224782E-02 -1.293285419502E-08
  12   6             3.866161225330E-07 -3.631854598281E-03  1.705273707813E-08
  13   6             1.630057075790E-02  3.053755403792E-03  1.315091572587E-08
  14   6             2.765120195591E-07 -2.799273784636E-03  1.789544270698E-08
  15   6             1.366053866760E-02 -1.965981527376E-02 -1.276113080872E-08
  16   6             2.217503575617E-02  4.647174594914E-03  1.252721737017E-08

 RESULTANT FORCE    -1.877387134641E-13  2.268185639309E-13 -1.073412192697E-13

 SYMMETRY ALLOWED FORCES (ANALYTICAL) (DIRECTION, FORCE)

    1  2.5464934E-02    2  1.6365330E-03    3 -6.2334625E-09    4 -2.8202512E-02
    5  7.5829059E-03    6 -2.1248550E-08    7 -2.0377255E-03    8  1.6471752E-03
    9  3.9619003E-09   10  3.5170903E-02   11 -1.9797249E-02   12 -2.0339203E-08
   13 -1.9151536E-02   14  2.1490526E-02   15 -2.6144215E-08   16 -5.6151452E-02
   17  3.3926742E-02   18 -4.9345680E-09   19  6.6384626E-03   20 -1.8841522E-02
   21 -1.5162607E-08   22 -2.0228343E-02   23 -1.5480732E-02   24 -2.1041177E-11
   25 -1.8320373E-02   26 -1.2966538E-02   27  5.5405672E-09   28  5.9580118E-04
   29 -7.1996965E-03   30  6.4015711E-09   31  1.6418752E-03   32 -2.6337002E-02
   33 -2.0544973E-08   34 -5.8735390E-03   35 -1.0070078E-02   36  8.3625596E-09
   37 -4.8574005E-03   38  7.1597086E-03   39  6.2905828E-09   40 -1.0643178E-02
   41 -1.0747950E-02   42  1.4707063E-08   43  1.1874601E-02   44 -1.3807862E-02
   45 -1.7881562E-08
 TTTTTTTTTTTTTTTTTTTTTTTTTTTTTT TOTGRA      TELAPSE       42.28 TCPU       40.81
 INFORMATION **** opta001 **** GEOMETRY OUTPUT FILE
 CLASSICAL MODEL (SCHLEGEL) USED AS INITIAL HESSIAN MATRIX
 REFERENCE GEOMETRY DEFINED

 MAX GRADIENT      0.056151  THRESHOLD              0.000450 CONVERGED NO
 RMS GRADIENT      0.015877  THRESHOLD              0.000300 CONVERGED NO

 GRADIENT NORM     0.106508  GRADIENT THRESHOLD     0.500000

 EIGENVALUES OF THE ESTIMATED HESSIAN
  0.8250E-03  0.2444E-02  0.3838E-02  0.4936E-02  0.7779E-02  0.9377E-02
  0.2156E-01  0.2303E-01  0.2799E-01  0.3231E-01  0.3592E-01  0.4729E-01
  0.5673E-01  0.6753E-01  0.7694E-01  0.8219E-01  0.9259E-01  0.1285    
  0.1403      0.1697      0.1853      0.1977      0.2121      0.2734    
  0.3732      0.3959      0.4393      0.4657      0.5245      0.5304    
  0.5843      0.7658      0.7835      0.9884       1.020       1.048    
   1.092       1.152       1.171       1.191       1.208       1.239    
   1.241       1.488       1.499    

 INITIAL TRUST RADIUS    0.5000000000E+00

 PREDICTED ENERGY CHANGE    -0.103E-01

 INITIAL DISPLACEMENTS
 -0.001464 -0.017539  0.000001 -0.014872  0.009602 -0.000005  0.010317 -0.007115
  0.000001  0.127236 -0.074696  0.000006 -0.006593  0.000218 -0.000005 -0.148284
  0.083902 -0.000006  0.009698  0.011259  0.000002 -0.047399 -0.056074  0.000001
  0.017464 -0.041826  0.000000  0.007218 -0.019352 -0.000003 -0.092003 -0.037225
 -0.000012  0.122038 -0.107234  0.000017  0.054834 -0.056184  0.000002 -0.057862
 -0.025701  0.000002 -0.034029  0.010759 -0.000011
 TTTTTTTTTTTTTTTTTTTTTTTTTTTTTT OPTI        TELAPSE       42.30 TCPU       40.82

 OPTOPTOPTOPTOPTOPTOPTOPTOPTOPTOPTOPTOPTOPTOPTOPTOPTOPTOPTOPTOPTOPTOPTOPTOPTOPT

 - INFORMATION ON SCF MOVED TO SCFOUT.LOG
 GEOMETRY OPTIMIZATION INFORMATION STORED IN OPTINFO.DAT

 OPTOPTOPTOPTOPTOPTOPTOPTOPTOPTOPTOPTOPTOPTOPTOPTOPTOPTOPTOPTOPTOPTOPTOPTOPTOPT
 *******************************************************************************
 COORDINATE OPTIMIZATION - POINT    2
 *******************************************************************************
 LATTICE PARAMETERS (ANGSTROMS AND DEGREES) - BOHR = 0.5291772083 ANGSTROM
 PRIMITIVE CELL - CENTRING CODE 1/0 VOLUME=   412.228566 - DENSITY  0.773 g/cm^3
         A              B              C           ALPHA      BETA       GAMMA 
     7.40317242     7.40317242     8.68503800    90.000000  90.000000 120.000000
 *******************************************************************************
 ATOMS IN THE ASYMMETRIC UNIT   16 - ATOMS IN THE UNIT CELL:   16
     ATOM                 X/A                 Y/B                 Z/C    
 *******************************************************************************
      1 T   6 C     1.103089419585E-01  2.208205456934E-01  3.000000537483E-01
      2 T   6 C     1.105204362115E-01 -4.435853172179E-01  2.999997219368E-01
      3 T   6 C     1.116382608361E-01 -1.116382369158E-01  3.000000751875E-01
      4 T   6 C     4.502873470599E-01 -4.502855601373E-01  3.000003457713E-01
      5 T   6 C     4.435870858849E-01 -1.105179992869E-01  2.999997009226E-01
      6 T   6 C    -2.294014063875E-01  2.293993246701E-01  2.999996350519E-01
      7 T   6 C    -2.208178381498E-01 -1.103154735562E-01  3.000001618676E-01
      8 T   6 C     2.170300525444E-01  1.065637197147E-01  3.000000699147E-01
      9 T   6 C     2.226311589761E-01  4.415767335112E-01  3.000000454848E-01
     10 T   6 C     2.228802153151E-01 -2.228781465944E-01  2.999998302821E-01
     11 T   6 C    -4.508868485909E-01  1.093756432265E-01  2.999993901787E-01
     12 T   6 C    -4.381558479096E-01  4.381583096919E-01  3.000011372666E-01
     13 T   6 C    -4.415745454020E-01 -2.226288234501E-01  3.000000731308E-01
     14 T   6 C    -1.143327783668E-01  1.143271081736E-01  3.000000280800E-01
     15 T   6 C    -1.093741913734E-01  4.508864794551E-01  2.999994060703E-01
     16 T   6 C    -1.065622648282E-01 -2.170360847549E-01  3.000003251060E-01

 T = ATOM BELONGING TO THE ASYMMETRIC UNIT

 TOTAL ENERGY(DFT)(AU)( 21) -6.0871921241451E+02     DE (AU)   -1.073E-02

 UPDATED TRUST RADIUS     0.100E+01

 SYMMETRY ALLOWED FORCES  (COORDINATE, FORCE)

    1  5.8395028E-03    2  1.0074564E-03    3 -1.8424710E-07    4 -5.0585797E-03
    5  1.1276326E-03    6  1.9851758E-07    7  3.9524569E-03    8 -2.1108602E-03
    9  3.7003060E-07   10  9.4971747E-03   11 -5.3064290E-03   12 -3.5089440E-07
   13 -2.5433436E-03   14  3.7659421E-03   15  2.3591418E-07   16 -8.5937403E-03
   17  5.3680166E-03   18  2.5134556E-07   19  2.1023839E-03   20 -5.2358489E-03
   21 -1.8027047E-07   22 -6.2727821E-03   23 -4.9187799E-03   24  4.0970896E-08
   25 -3.1648544E-03   26  5.1378120E-03   27  5.5555422E-08   28  6.3430854E-03
   29 -4.2716108E-03   30 -4.4517097E-08   31  1.2437507E-02   32  3.7406746E-03
   33 -3.0002588E-07   34 -4.9610321E-03   35  4.3567233E-03   36  6.7923759E-07
   37 -5.5324971E-03   38  3.7513879E-04   39  2.3086395E-07   40 -2.6320499E-03
   41  2.5797356E-03   42 -3.8963958E-09   43  9.0531143E-04   44 -1.3725445E-02
   45 -2.2978408E-07

 GRADIENT NORM     0.030981  GRADIENT THRESHOLD     0.500000

 EIGENVALUES OF THE ESTIMATED HESSIAN
  0.8250E-03  0.2444E-02  0.3838E-02  0.4936E-02  0.7779E-02  0.9377E-02
  0.2156E-01  0.2303E-01  0.2799E-01  0.3231E-01  0.3592E-01  0.4729E-01
  0.5673E-01  0.6753E-01  0.7694E-01  0.8219E-01  0.9978E-01  0.1285    
  0.1390      0.1697      0.1853      0.1977      0.2149      0.2729    
  0.3732      0.3927      0.4460      0.4657      0.5287      0.5304    
  0.5805      0.7632      0.7835      0.9130       1.010       1.020    
   1.092       1.147       1.152       1.188       1.208       1.239    
   1.240       1.488       1.504    

 PREDICTED ENERGY CHANGE    -0.812E-03

 MAX GRADIENT      0.013725  THRESHOLD              0.000450 CONVERGED NO
 RMS GRADIENT      0.004618  THRESHOLD              0.000300 CONVERGED NO
 MAX DISPLAC.      0.030854  THRESHOLD              0.001800 CONVERGED NO
 RMS DISPLAC.      0.008837  THRESHOLD              0.001200 CONVERGED NO
 TTTTTTTTTTTTTTTTTTTTTTTTTTTTTT OPTI        TELAPSE       84.91 TCPU       83.18
 *******************************************************************************
 COORDINATE OPTIMIZATION - POINT    3
 *******************************************************************************
 LATTICE PARAMETERS (ANGSTROMS AND DEGREES) - BOHR = 0.5291772083 ANGSTROM
 PRIMITIVE CELL - CENTRING CODE 1/0 VOLUME=   412.228566 - DENSITY  0.773 g/cm^3
         A              B              C           ALPHA      BETA       GAMMA 
     7.40317242     7.40317242     8.68503800    90.000000  90.000000 120.000000
 *******************************************************************************
 ATOMS IN THE ASYMMETRIC UNIT   16 - ATOMS IN THE UNIT CELL:   16
     ATOM                 X/A                 Y/B                 Z/C    
 *******************************************************************************
      1 T   6 C     1.105997425489E-01  2.208529886664E-01  2.999989085885E-01
      2 T   6 C     1.095825801183E-01 -4.440024889790E-01  2.999947137426E-01
      3 T   6 C     1.122856873089E-01 -1.122809922051E-01  2.999999510217E-01
      4 T   6 C     4.505219124073E-01 -4.505234798780E-01  3.000090155588E-01
      5 T   6 C     4.440038900437E-01 -1.095809003593E-01  2.999959507805E-01
      6 T   6 C    -2.299335521828E-01  2.299335127055E-01  2.999925063367E-01
      7 T   6 C    -2.208553196694E-01 -1.106060550023E-01  3.000005701955E-01
      8 T   6 C     2.153241051390E-01  1.049938906376E-01  2.999992609853E-01
      9 T   6 C     2.225808750042E-01  4.420100088440E-01  2.999995437676E-01
     10 T   6 C     2.234757658999E-01 -2.234732674672E-01  2.999968127658E-01
     11 T   6 C    -4.489968493089E-01  1.102669777936E-01  2.999892122919E-01
     12 T   6 C    -4.389026566014E-01  4.388998358225E-01  3.000340153514E-01
     13 T   6 C    -4.420114332527E-01 -2.225808119400E-01  3.000015571376E-01
     14 T   6 C    -1.146423560150E-01  1.146374168500E-01  2.999980434337E-01
     15 T   6 C    -1.102651697859E-01  4.489983151075E-01  2.999878920148E-01
     16 T   6 C    -1.049894438758E-01 -2.153227283733E-01  3.000020460275E-01

 T = ATOM BELONGING TO THE ASYMMETRIC UNIT

 TOTAL ENERGY(DFT)(AU)( 14) -6.0872018145616E+02     DE (AU)   -9.690E-04

 UPDATED TRUST RADIUS     0.200E+01

 SYMMETRY ALLOWED FORCES  (COORDINATE, FORCE)

    1  8.6941084E-04    2 -8.3548540E-05    3 -5.4811016E-06    4 -5.0590457E-04
    5  2.6676404E-04    6  2.5802370E-06    7  4.2672932E-03    8 -2.4421436E-03
    9  1.0209206E-05   10  2.7828929E-03   11 -1.5794376E-03   12 -9.8183471E-06
   13  6.1651003E-05   14  4.7827404E-05   15  2.8478252E-06   16 -4.7503331E-05
   17  6.8636936E-05   18  4.6863182E-06   19  1.1073296E-03   20 -1.0060844E-03
   21 -5.0911037E-06   22 -5.0629696E-03   23  1.8349875E-03   24 -1.2661212E-06
   25 -1.2682349E-03   26  1.2158110E-03   27  3.4683375E-06   28  2.6784619E-03
   29 -1.6156622E-03   30 -1.1342209E-06   31  2.6017711E-03   32 -2.3530087E-03
   33 -9.7096085E-06   34 -5.7760160E-04   35  7.2633749E-05   36  1.9786418E-05
   37 -1.2575618E-03   38 -2.8357942E-04   39  5.9382584E-06   40  1.5742565E-03
   41 -1.6105107E-03   42  1.8674103E-06   43  5.1098794E-03   44 -3.1748743E-03
   45 -6.0703190E-06

 GRADIENT NORM     0.011627  GRADIENT THRESHOLD     0.500000

 EIGENVALUES OF THE ESTIMATED HESSIAN
  0.8250E-03  0.2444E-02  0.3838E-02  0.4936E-02  0.7779E-02  0.9377E-02
  0.2156E-01  0.2303E-01  0.2799E-01  0.3231E-01  0.3592E-01  0.4729E-01
  0.5673E-01  0.6753E-01  0.7694E-01  0.8219E-01  0.1005      0.1285    
  0.1440      0.1697      0.1780      0.1853      0.1977      0.2742    
  0.3732      0.3937      0.4224      0.4657      0.5108      0.5304    
  0.6479      0.7660      0.7835      0.8134       1.005       1.020    
   1.092       1.152       1.179       1.194       1.208       1.239    
   1.240       1.488       1.501    

 PREDICTED ENERGY CHANGE    -0.198E-03

 MAX GRADIENT      0.005110  THRESHOLD              0.000450 CONVERGED NO
 RMS GRADIENT      0.001733  THRESHOLD              0.000300 CONVERGED NO
 MAX DISPLAC.      0.022341  THRESHOLD              0.001800 CONVERGED NO
 RMS DISPLAC.      0.007308  THRESHOLD              0.001200 CONVERGED NO
 TTTTTTTTTTTTTTTTTTTTTTTTTTTTTT OPTI        TELAPSE      116.12 TCPU      114.22
 *******************************************************************************
 COORDINATE OPTIMIZATION - POINT    4
 *******************************************************************************
 LATTICE PARAMETERS (ANGSTROMS AND DEGREES) - BOHR = 0.5291772083 ANGSTROM
 PRIMITIVE CELL - CENTRING CODE 1/0 VOLUME=   412.228566 - DENSITY  0.773 g/cm^3
         A              B              C           ALPHA      BETA       GAMMA 
     7.40317242     7.40317242     8.68503800    90.000000  90.000000 120.000000
 *******************************************************************************
 ATOMS IN THE ASYMMETRIC UNIT   16 - ATOMS IN THE UNIT CELL:   16
     ATOM                 X/A                 Y/B                 Z/C    
 *******************************************************************************
      1 T   6 C     1.102817632140E-01  2.210945882313E-01  2.999691518118E-01
      2 T   6 C     1.097368283256E-01 -4.440912168477E-01  2.997939259592E-01
      3 T   6 C     1.125686856230E-01 -1.125632974738E-01  2.999891699719E-01
      4 T   6 C     4.508081807268E-01 -4.508146119958E-01  3.003531244496E-01
      5 T   6 C     4.440936665260E-01 -1.097363231176E-01  2.998261364096E-01
      6 T   6 C    -2.299228422068E-01  2.299274596201E-01  2.997133656861E-01
      7 T   6 C    -2.210952513672E-01 -1.102820831766E-01  3.000326015140E-01
      8 T   6 C     2.137365801146E-01  1.049178838806E-01  2.999772368604E-01
      9 T   6 C     2.226665446442E-01  4.422832444336E-01  2.999936669055E-01
[...]

aborting job:
application called MPI_Abort(MPI_COMM_WORLD, 1) - process 98
MPICH ERROR [Rank 79] [job id 2541589.4] [Mon Oct 31 18:13:58 2022] [nid005741] - Abort(1) (rank 79 in comm 0): application called MPI_Abort(MPI_COMM_WORLD, 1) - process 79

aborting job:
application called MPI_Abort(MPI_COMM_WORLD, 1) - process 79
MPICH ERROR [Rank 97] [job id 2541589.4] [Mon Oct 31 18:13:58 2022] [nid005741] - Abort(1) (rank 97 in comm 0): application called MPI_Abort(MPI_COMM_WORLD, 1) - process 97

aborting job:
application called MPI_Abort(MPI_COMM_WORLD, 1) - process 97
MPICH ERROR [Rank 115] [job id 2541589.4] [Mon Oct 31 18:13:58 2022] [nid005741] - Abort(1) (rank 115 in comm 0): application called MPI_Abort(MPI_COMM_WORLD, 1) - process 115

aborting job:
application called MPI_Abort(MPI_COMM_WORLD, 1) - process 115
MPICH ERROR [Rank 100] [job id 2541589.4] [Mon Oct 31 18:13:58 2022] [nid005741] - Abort(1) (rank 100 in comm 0): application called MPI_Abort(MPI_COMM_WORLD, 1) - process 100

aborting job:
application called MPI_Abort(MPI_COMM_WORLD, 1) - process 100
MPICH ERROR [Rank 82] [job id 2541589.4] [Mon Oct 31 18:13:58 2022] [nid005741] - Abort(1) (rank 82 in comm 0): application called MPI_Abort(MPI_COMM_WORLD, 1) - process 82

aborting job:
application called MPI_Abort(MPI_COMM_WORLD, 1) - process 82
MPICH ERROR [Rank 93] [job id 2541589.4] [Mon Oct 31 18:13:58 2022] [nid005741] - Abort(1) (rank 93 in comm 0): application called MPI_Abort(MPI_COMM_WORLD, 1) - process 93

aborting job:
application called MPI_Abort(MPI_COMM_WORLD, 1) - process 93
MPICH ERROR [Rank 2] [job id 2541589.4] [Mon Oct 31 18:13:58 2022] [nid005741] - Abort(1) (rank 2 in comm 0): application called MPI_Abort(MPI_COMM_WORLD, 1) - process 2

aborting job:
application called MPI_Abort(MPI_COMM_WORLD, 1) - process 2
MPICH ERROR [Rank 17] [job id 2541589.4] [Mon Oct 31 18:13:58 2022] [nid005741] - Abort(1) (rank 17 in comm 0): application called MPI_Abort(MPI_COMM_WORLD, 1) - process 17

aborting job:
application called MPI_Abort(MPI_COMM_WORLD, 1) - process 17
MPICH ERROR [Rank 56] [job id 2541589.4] [Mon Oct 31 18:13:58 2022] [nid005741] - Abort(1) (rank 56 in comm 0): application called MPI_Abort(MPI_COMM_WORLD, 1) - process 56

aborting job:
application called MPI_Abort(MPI_COMM_WORLD, 1) - process 56
MPICH ERROR [Rank 62] [job id 2541589.4] [Mon Oct 31 18:13:58 2022] [nid005741] - Abort(1) (rank 62 in comm 0): application called MPI_Abort(MPI_COMM_WORLD, 1) - process 62

aborting job:
application called MPI_Abort(MPI_COMM_WORLD, 1) - process 62
MPICH ERROR [Rank 16] [job id 2541589.4] [Mon Oct 31 18:13:58 2022] [nid005741] - Abort(1) (rank 16 in comm 0): application called MPI_Abort(MPI_COMM_WORLD, 1) - process 16

aborting job:
application called MPI_Abort(MPI_COMM_WORLD, 1) - process 16
MPICH ERROR [Rank 43] [job id 2541589.4] [Mon Oct 31 18:13:58 2022] [nid005741] - Abort(1) (rank 43 in comm 0): application called MPI_Abort(MPI_COMM_WORLD, 1) - process 43

aborting job:
application called MPI_Abort(MPI_COMM_WORLD, 1) - process 43
MPICH ERROR [Rank 32] [job id 2541589.4] [Mon Oct 31 18:13:58 2022] [nid005741] - Abort(1) (rank 32 in comm 0): application called MPI_Abort(MPI_COMM_WORLD, 1) - process 32

aborting job:
application called MPI_Abort(MPI_COMM_WORLD, 1) - process 32
MPICH ERROR [Rank 35] [job id 2541589.4] [Mon Oct 31 18:13:58 2022] [nid005741] - Abort(1) (rank 35 in comm 0): application called MPI_Abort(MPI_COMM_WORLD, 1) - process 35

aborting job:
application called MPI_Abort(MPI_COMM_WORLD, 1) - process 35
MPICH ERROR [Rank 38] [job id 2541589.4] [Mon Oct 31 18:13:58 2022] [nid005741] - Abort(1) (rank 38 in comm 0): application called MPI_Abort(MPI_COMM_WORLD, 1) - process 38

aborting job:
application called MPI_Abort(MPI_COMM_WORLD, 1) - process 38
MPICH ERROR [Rank 64] [job id 2541589.4] [Mon Oct 31 18:13:58 2022] [nid005741] - Abort(1) (rank 64 in comm 0): application called MPI_Abort(MPI_COMM_WORLD, 1) - process 64

aborting job:
application called MPI_Abort(MPI_COMM_WORLD, 1) - process 64
MPICH ERROR [Rank 91] [job id 2541589.4] [Mon Oct 31 18:13:58 2022] [nid005741] - Abort(1) (rank 91 in comm 0): application called MPI_Abort(MPI_COMM_WORLD, 1) - process 91

aborting job:
application called MPI_Abort(MPI_COMM_WORLD, 1) - process 91
MPICH ERROR [Rank 103] [job id 2541589.4] [Mon Oct 31 18:13:58 2022] [nid005741] - Abort(1) (rank 103 in comm 0): application called MPI_Abort(MPI_COMM_WORLD, 1) - process 103

aborting job:
application called MPI_Abort(MPI_COMM_WORLD, 1) - process 103
MPICH ERROR [Rank 118] [job id 2541589.4] [Mon Oct 31 18:13:58 2022] [nid005741] - Abort(1) (rank 118 in comm 0): application called MPI_Abort(MPI_COMM_WORLD, 1) - process 118

aborting job:
application called MPI_Abort(MPI_COMM_WORLD, 1) - process 118
MPICH ERROR [Rank 39] [job id 2541589.4] [Mon Oct 31 18:13:58 2022] [nid005741] - Abort(1) (rank 39 in comm 0): application called MPI_Abort(MPI_COMM_WORLD, 1) - process 39

aborting job:
application called MPI_Abort(MPI_COMM_WORLD, 1) - process 39
MPICH ERROR [Rank 86] [job id 2541589.4] [Mon Oct 31 18:13:58 2022] [nid005741] - Abort(1) (rank 86 in comm 0): application called MPI_Abort(MPI_COMM_WORLD, 1) - process 86

aborting job:
application called MPI_Abort(MPI_COMM_WORLD, 1) - process 86
MPICH ERROR [Rank 88] [job id 2541589.4] [Mon Oct 31 18:13:58 2022] [nid005741] - Abort(1) (rank 88 in comm 0): application called MPI_Abort(MPI_COMM_WORLD, 1) - process 88

aborting job:
application called MPI_Abort(MPI_COMM_WORLD, 1) - process 88
MPICH ERROR [Rank 28] [job id 2541589.4] [Mon Oct 31 18:13:58 2022] [nid005741] - Abort(1) (rank 28 in comm 0): application called MPI_Abort(MPI_COMM_WORLD, 1) - process 28

aborting job:
application called MPI_Abort(MPI_COMM_WORLD, 1) - process 28
MPICH ERROR [Rank 58] [job id 2541589.4] [Mon Oct 31 18:13:58 2022] [nid005741] - Abort(1) (rank 58 in comm 0): application called MPI_Abort(MPI_COMM_WORLD, 1) - process 58

aborting job:
application called MPI_Abort(MPI_COMM_WORLD, 1) - process 58
MPICH ERROR [Rank 119] [job id 2541589.4] [Mon Oct 31 18:13:58 2022] [nid005741] - Abort(1) (rank 119 in comm 0): application called MPI_Abort(MPI_COMM_WORLD, 1) - process 119

aborting job:
application called MPI_Abort(MPI_COMM_WORLD, 1) - process 119
MPICH ERROR [Rank 8] [job id 2541589.4] [Mon Oct 31 18:13:58 2022] [nid005741] - Abort(1) (rank 8 in comm 0): application called MPI_Abort(MPI_COMM_WORLD, 1) - process 8

aborting job:
application called MPI_Abort(MPI_COMM_WORLD, 1) - process 8
MPICH ERROR [Rank 19] [job id 2541589.4] [Mon Oct 31 18:13:58 2022] [nid005741] - Abort(1) (rank 19 in comm 0): application called MPI_Abort(MPI_COMM_WORLD, 1) - process 19

aborting job:
application called MPI_Abort(MPI_COMM_WORLD, 1) - process 19
MPICH ERROR [Rank 29] [job id 2541589.4] [Mon Oct 31 18:13:58 2022] [nid005741] - Abort(1) (rank 29 in comm 0): application called MPI_Abort(MPI_COMM_WORLD, 1) - process 29

aborting job:
application called MPI_Abort(MPI_COMM_WORLD, 1) - process 29
MPICH ERROR [Rank 34] [job id 2541589.4] [Mon Oct 31 18:13:58 2022] [nid005741] - Abort(1) (rank 34 in comm 0): application called MPI_Abort(MPI_COMM_WORLD, 1) - process 34

aborting job:
application called MPI_Abort(MPI_COMM_WORLD, 1) - process 34
MPICH ERROR [Rank 60] [job id 2541589.4] [Mon Oct 31 18:13:58 2022] [nid005741] - Abort(1) (rank 60 in comm 0): application called MPI_Abort(MPI_COMM_WORLD, 1) - process 60

aborting job:
application called MPI_Abort(MPI_COMM_WORLD, 1) - process 60
MPICH ERROR [Rank 74] [job id 2541589.4] [Mon Oct 31 18:13:58 2022] [nid005741] - Abort(1) (rank 74 in comm 0): application called MPI_Abort(MPI_COMM_WORLD, 1) - process 74

aborting job:
application called MPI_Abort(MPI_COMM_WORLD, 1) - process 74
MPICH ERROR [Rank 104] [job id 2541589.4] [Mon Oct 31 18:13:58 2022] [nid005741] - Abort(1) (rank 104 in comm 0): application called MPI_Abort(MPI_COMM_WORLD, 1) - process 104

aborting job:
application called MPI_Abort(MPI_COMM_WORLD, 1) - process 104
MPICH ERROR [Rank 13] [job id 2541589.4] [Mon Oct 31 18:13:58 2022] [nid005741] - Abort(1) (rank 13 in comm 0): application called MPI_Abort(MPI_COMM_WORLD, 1) - process 13

aborting job:
application called MPI_Abort(MPI_COMM_WORLD, 1) - process 13
MPICH ERROR [Rank 12] [job id 2541589.4] [Mon Oct 31 18:13:58 2022] [nid005741] - Abort(1) (rank 12 in comm 0): application called MPI_Abort(MPI_COMM_WORLD, 1) - process 12

aborting job:
application called MPI_Abort(MPI_COMM_WORLD, 1) - process 12
MPICH ERROR [Rank 65] [job id 2541589.4] [Mon Oct 31 18:13:58 2022] [nid005741] - Abort(1) (rank 65 in comm 0): application called MPI_Abort(MPI_COMM_WORLD, 1) - process 65

aborting job:
application called MPI_Abort(MPI_COMM_WORLD, 1) - process 65
MPICH ERROR [Rank 99] [job id 2541589.4] [Mon Oct 31 18:13:58 2022] [nid005741] - Abort(1) (rank 99 in comm 0): application called MPI_Abort(MPI_COMM_WORLD, 1) - process 99

aborting job:
application called MPI_Abort(MPI_COMM_WORLD, 1) - process 99
MPICH ERROR [Rank 89] [job id 2541589.4] [Mon Oct 31 18:13:58 2022] [nid005741] - Abort(1) (rank 89 in comm 0): application called MPI_Abort(MPI_COMM_WORLD, 1) - process 89

aborting job:
application called MPI_Abort(MPI_COMM_WORLD, 1) - process 89
MPICH ERROR [Rank 101] [job id 2541589.4] [Mon Oct 31 18:13:58 2022] [nid005741] - Abort(1) (rank 101 in comm 0): application called MPI_Abort(MPI_COMM_WORLD, 1) - process 101

aborting job:
application called MPI_Abort(MPI_COMM_WORLD, 1) - process 101
MPICH ERROR [Rank 102] [job id 2541589.4] [Mon Oct 31 18:13:58 2022] [nid005741] - Abort(1) (rank 102 in comm 0): application called MPI_Abort(MPI_COMM_WORLD, 1) - process 102

aborting job:
application called MPI_Abort(MPI_COMM_WORLD, 1) - process 102
MPICH ERROR [Rank 112] [job id 2541589.4] [Mon Oct 31 18:13:58 2022] [nid005741] - Abort(1) (rank 112 in comm 0): application called MPI_Abort(MPI_COMM_WORLD, 1) - process 112

aborting job:
application called MPI_Abort(MPI_COMM_WORLD, 1) - process 112
MPICH ERROR [Rank 0] [job id 2541589.4] [Mon Oct 31 18:13:58 2022] [nid005741] - Abort(1) (rank 0 in comm 0): application called MPI_Abort(MPI_COMM_WORLD, 1) - process 0

aborting job:
application called MPI_Abort(MPI_COMM_WORLD, 1) - process 0
MPICH ERROR [Rank 69] [job id 2541589.4] [Mon Oct 31 18:13:58 2022] [nid005741] - Abort(1) (rank 69 in comm 0): application called MPI_Abort(MPI_COMM_WORLD, 1) - process 69

aborting job:
application called MPI_Abort(MPI_COMM_WORLD, 1) - process 69
MPICH ERROR [Rank 85] [job id 2541589.4] [Mon Oct 31 18:13:58 2022] [nid005741] - Abort(1) (rank 85 in comm 0): application called MPI_Abort(MPI_COMM_WORLD, 1) - process 85

aborting job:
application called MPI_Abort(MPI_COMM_WORLD, 1) - process 85
MPICH ERROR [Rank 4] [job id 2541589.4] [Mon Oct 31 18:13:58 2022] [nid005741] - Abort(1) (rank 4 in comm 0): application called MPI_Abort(MPI_COMM_WORLD, 1) - process 4

aborting job:
application called MPI_Abort(MPI_COMM_WORLD, 1) - process 4
MPICH ERROR [Rank 9] [job id 2541589.4] [Mon Oct 31 18:13:58 2022] [nid005741] - Abort(1) (rank 9 in comm 0): application called MPI_Abort(MPI_COMM_WORLD, 1) - process 9

aborting job:
application called MPI_Abort(MPI_COMM_WORLD, 1) - process 9
MPICH ERROR [Rank 26] [job id 2541589.4] [Mon Oct 31 18:13:58 2022] [nid005741] - Abort(1) (rank 26 in comm 0): application called MPI_Abort(MPI_COMM_WORLD, 1) - process 26

aborting job:
application called MPI_Abort(MPI_COMM_WORLD, 1) - process 26
MPICH ERROR [Rank 55] [job id 2541589.4] [Mon Oct 31 18:13:58 2022] [nid005741] - Abort(1) (rank 55 in comm 0): application called MPI_Abort(MPI_COMM_WORLD, 1) - process 55

aborting job:
application called MPI_Abort(MPI_COMM_WORLD, 1) - process 55
MPICH ERROR [Rank 7] [job id 2541589.4] [Mon Oct 31 18:13:58 2022] [nid005741] - Abort(1) (rank 7 in comm 0): application called MPI_Abort(MPI_COMM_WORLD, 1) - process 7

aborting job:
application called MPI_Abort(MPI_COMM_WORLD, 1) - process 7
MPICH ERROR [Rank 50] [job id 2541589.4] [Mon Oct 31 18:13:58 2022] [nid005741] - Abort(1) (rank 50 in comm 0): application called MPI_Abort(MPI_COMM_WORLD, 1) - process 50

aborting job:
application called MPI_Abort(MPI_COMM_WORLD, 1) - process 50
MPICH ERROR [Rank 71] [job id 2541589.4] [Mon Oct 31 18:13:58 2022] [nid005741] - Abort(1) (rank 71 in comm 0): application called MPI_Abort(MPI_COMM_WORLD, 1) - process 71

aborting job:
application called MPI_Abort(MPI_COMM_WORLD, 1) - process 71
MPICH ERROR [Rank 72] [job id 2541589.4] [Mon Oct 31 18:13:58 2022] [nid005741] - Abort(1) (rank 72 in comm 0): application called MPI_Abort(MPI_COMM_WORLD, 1) - process 72

aborting job:
application called MPI_Abort(MPI_COMM_WORLD, 1) - process 72
MPICH ERROR [Rank 127] [job id 2541589.4] [Mon Oct 31 18:13:58 2022] [nid005741] - Abort(1) (rank 127 in comm 0): application called MPI_Abort(MPI_COMM_WORLD, 1) - process 127

aborting job:
application called MPI_Abort(MPI_COMM_WORLD, 1) - process 127
MPICH ERROR [Rank 105] [job id 2541589.4] [Mon Oct 31 18:13:58 2022] [nid005741] - Abort(1) (rank 105 in comm 0): application called MPI_Abort(MPI_COMM_WORLD, 1) - process 105

aborting job:
application called MPI_Abort(MPI_COMM_WORLD, 1) - process 105
MPICH ERROR [Rank 116] [job id 2541589.4] [Mon Oct 31 18:13:58 2022] [nid005741] - Abort(1) (rank 116 in comm 0): application called MPI_Abort(MPI_COMM_WORLD, 1) - process 116

aborting job:
application called MPI_Abort(MPI_COMM_WORLD, 1) - process 116
MPICH ERROR [Rank 78] [job id 2541589.4] [Mon Oct 31 18:13:58 2022] [nid005741] - Abort(1) (rank 78 in comm 0): application called MPI_Abort(MPI_COMM_WORLD, 1) - process 78

aborting job:
application called MPI_Abort(MPI_COMM_WORLD, 1) - process 78
MPICH ERROR [Rank 87] [job id 2541589.4] [Mon Oct 31 18:13:58 2022] [nid005741] - Abort(1) (rank 87 in comm 0): application called MPI_Abort(MPI_COMM_WORLD, 1) - process 87

aborting job:
application called MPI_Abort(MPI_COMM_WORLD, 1) - process 87
MPICH ERROR [Rank 18] [job id 2541589.4] [Mon Oct 31 18:13:58 2022] [nid005741] - Abort(1) (rank 18 in comm 0): application called MPI_Abort(MPI_COMM_WORLD, 1) - process 18

aborting job:
application called MPI_Abort(MPI_COMM_WORLD, 1) - process 18
MPICH ERROR [Rank 31] [job id 2541589.4] [Mon Oct 31 18:13:58 2022] [nid005741] - Abort(1) (rank 31 in comm 0): application called MPI_Abort(MPI_COMM_WORLD, 1) - process 31

aborting job:
application called MPI_Abort(MPI_COMM_WORLD, 1) - process 31
MPICH ERROR [Rank 53] [job id 2541589.4] [Mon Oct 31 18:13:58 2022] [nid005741] - Abort(1) (rank 53 in comm 0): application called MPI_Abort(MPI_COMM_WORLD, 1) - process 53

aborting job:
application called MPI_Abort(MPI_COMM_WORLD, 1) - process 53
MPICH ERROR [Rank 54] [job id 2541589.4] [Mon Oct 31 18:13:58 2022] [nid005741] - Abort(1) (rank 54 in comm 0): application called MPI_Abort(MPI_COMM_WORLD, 1) - process 54

aborting job:
application called MPI_Abort(MPI_COMM_WORLD, 1) - process 54
MPICH ERROR [Rank 44] [job id 2541589.4] [Mon Oct 31 18:13:58 2022] [nid005741] - Abort(1) (rank 44 in comm 0): application called MPI_Abort(MPI_COMM_WORLD, 1) - process 44

aborting job:
application called MPI_Abort(MPI_COMM_WORLD, 1) - process 44
MPICH ERROR [Rank 46] [job id 2541589.4] [Mon Oct 31 18:13:58 2022] [nid005741] - Abort(1) (rank 46 in comm 0): application called MPI_Abort(MPI_COMM_WORLD, 1) - process 46

aborting job:
application called MPI_Abort(MPI_COMM_WORLD, 1) - process 46
MPICH ERROR [Rank 63] [job id 2541589.4] [Mon Oct 31 18:13:58 2022] [nid005741] - Abort(1) (rank 63 in comm 0): application called MPI_Abort(MPI_COMM_WORLD, 1) - process 63

aborting job:
application called MPI_Abort(MPI_COMM_WORLD, 1) - process 63
MPICH ERROR [Rank 83] [job id 2541589.4] [Mon Oct 31 18:13:58 2022] [nid005741] - Abort(1) (rank 83 in comm 0): application called MPI_Abort(MPI_COMM_WORLD, 1) - process 83

aborting job:
application called MPI_Abort(MPI_COMM_WORLD, 1) - process 83
MPICH ERROR [Rank 1] [job id 2541589.4] [Mon Oct 31 18:13:58 2022] [nid005741] - Abort(1) (rank 1 in comm 0): application called MPI_Abort(MPI_COMM_WORLD, 1) - process 1

aborting job:
application called MPI_Abort(MPI_COMM_WORLD, 1) - process 1
MPICH ERROR [Rank 21] [job id 2541589.4] [Mon Oct 31 18:13:58 2022] [nid005741] - Abort(1) (rank 21 in comm 0): application called MPI_Abort(MPI_COMM_WORLD, 1) - process 21

aborting job:
application called MPI_Abort(MPI_COMM_WORLD, 1) - process 21
MPICH ERROR [Rank 24] [job id 2541589.4] [Mon Oct 31 18:13:58 2022] [nid005741] - Abort(1) (rank 24 in comm 0): application called MPI_Abort(MPI_COMM_WORLD, 1) - process 24

aborting job:
application called MPI_Abort(MPI_COMM_WORLD, 1) - process 24
MPICH ERROR [Rank 33] [job id 2541589.4] [Mon Oct 31 18:13:58 2022] [nid005741] - Abort(1) (rank 33 in comm 0): application called MPI_Abort(MPI_COMM_WORLD, 1) - process 33

aborting job:
application called MPI_Abort(MPI_COMM_WORLD, 1) - process 33
MPICH ERROR [Rank 45] [job id 2541589.4] [Mon Oct 31 18:13:58 2022] [nid005741] - Abort(1) (rank 45 in comm 0): application called MPI_Abort(MPI_COMM_WORLD, 1) - process 45

aborting job:
application called MPI_Abort(MPI_COMM_WORLD, 1) - process 45
MPICH ERROR [Rank 40] [job id 2541589.4] [Mon Oct 31 18:13:58 2022] [nid005741] - Abort(1) (rank 40 in comm 0): application called MPI_Abort(MPI_COMM_WORLD, 1) - process 40

aborting job:
application called MPI_Abort(MPI_COMM_WORLD, 1) - process 40
MPICH ERROR [Rank 61] [job id 2541589.4] [Mon Oct 31 18:13:58 2022] [nid005741] - Abort(1) (rank 61 in comm 0): application called MPI_Abort(MPI_COMM_WORLD, 1) - process 61

aborting job:
application called MPI_Abort(MPI_COMM_WORLD, 1) - process 61
MPICH ERROR [Rank 66] [job id 2541589.4] [Mon Oct 31 18:13:58 2022] [nid005741] - Abort(1) (rank 66 in comm 0): application called MPI_Abort(MPI_COMM_WORLD, 1) - process 66

aborting job:
application called MPI_Abort(MPI_COMM_WORLD, 1) - process 66
MPICH ERROR [Rank 68] [job id 2541589.4] [Mon Oct 31 18:13:58 2022] [nid005741] - Abort(1) (rank 68 in comm 0): application called MPI_Abort(MPI_COMM_WORLD, 1) - process 68

aborting job:
application called MPI_Abort(MPI_COMM_WORLD, 1) - process 68
MPICH ERROR [Rank 126] [job id 2541589.4] [Mon Oct 31 18:13:58 2022] [nid005741] - Abort(1) (rank 126 in comm 0): application called MPI_Abort(MPI_COMM_WORLD, 1) - process 126

aborting job:
application called MPI_Abort(MPI_COMM_WORLD, 1) - process 126
MPICH ERROR [Rank 70] [job id 2541589.4] [Mon Oct 31 18:13:58 2022] [nid005741] - Abort(1) (rank 70 in comm 0): application called MPI_Abort(MPI_COMM_WORLD, 1) - process 70

aborting job:
application called MPI_Abort(MPI_COMM_WORLD, 1) - process 70
srun: error: nid005741: tasks 0-127: Exited with exit code 255
srun: launch/slurm: _step_signal: Terminating StepId=2541589.4
end_date Mon Oct 31 18:13:59 GMT 2022
 
TEMPORARY          SAVED (in /mnt/lustre/a2fs-work2/work/e05/e05/bcamino/quantum_computing/test_model/optgeom)
binary wf (fort.9) is not written on this node
fort.87            graphene_2v_C.ERROR120      Oct 31 18:13
fort.34            graphene_2v_C.gui 1369     Oct 31 18:13
fort.33            graphene_2v_C.xyz 26601    Oct 31 18:13
SCFOUT.LOG         graphene_2v_C.SCFLOG569068   Oct 31 18:13
OPTINFO.DAT        graphene_2v_C.OPTINFO12705868 Oct 31 18:13
HESSOPT.DAT        graphene_2v_C.HESSOPT43032    Oct 31 18:13
opta001            opta002            
Disk usage:<du -m>
528	/mnt/lustre/a2fs-work2/work/e05/e05/bcamino/quantum_computing/test_model/optgeom/tmp_graphene_2v_C_
</du -m>
Filesystem                                          1K-blocks          Used     Available Use% Mounted on
10.253.102.2@o2ib1:10.253.102.3@o2ib1:/cls01097 3582178503216 1810604197216 1735378925936  52% /mnt/lustre/a2fs-work2
10.253.102.2@o2ib1:10.253.102.3@o2ib1:/cls01097 3582178503216 1810604197216 1735378925936  52% /mnt/lustre/a2fs-work2
