date:                Tue Nov  1 21:27:27 GMT 2022
hostname:            nid005097
system:              Linux nid005097 4.12.14-197.78_9.1.64-cray_shasta_c #1 SMP Wed Aug 25 14:56:40 UTC 2021 (4e2a900) x86_64 x86_64 x86_64 GNU/Linux
user:                bcamino
input:               /mnt/lustre/a2fs-work2/work/e05/e05/bcamino/quantum_computing/test_model/optgeom/graphene_3v_B.d12
output:              /mnt/lustre/a2fs-work2/work/e05/e05/bcamino/quantum_computing/test_model/optgeom/graphene_3v_B.out
executable script:   /work/e05/e05/bcamino/runCRYSTAL/Pcry_slurm
executable:          Pcrystal
Command:             srun --hint=nomultithread --distribution=block:block Pcrystal
Slurm JobID:         
temporary directory: /mnt/lustre/a2fs-work2/work/e05/e05/bcamino/quantum_computing/test_model/optgeom/tmp_graphene_3v_B_      
input data /mnt/lustre/a2fs-work2/work/e05/e05/bcamino/quantum_computing/test_model/optgeom/graphene_3v_B.d12
Final
EXTERNAL
SYMMREMO
OPTGEOM
ATOMONLY
MAXTRADIUS
0.2
TRUSTRADIUS
0.25
MAXCYCLE
500
END
END
6 8
0 0 6 2.0 1.0
  13575.349682      0.00022245814352
  2035.2333680      0.00172327382520
  463.22562359      0.00892557153140
  131.20019598      0.03572798450200
  42.853015891      0.11076259931000
  15.584185766      0.24295627626000
0 0 2 2.0 1.0
  6.2067138508      0.41440263448000
  2.5764896527      0.23744968655000
0 0 1 0.0 1.0
  0.4941102000      1.00000000000000
0 0 1 0.0 1.0
  0.1644071000      1.00000000000000
0 2 4 2.0 1.0
  34.697232244      0.00533336578050
  7.9582622826      0.03586410909200
  2.3780826883      0.14215873329000
  0.8143320818      0.34270471845000
0 2 1 0.0 1.0
  0.5662417100      1.00000000000000
0 2 1 0.0 1.0
  0.1973545000      1.00000000000000
0 3 1 0.0 1.0
  0.5791584200      1.00000000000000
99 0
ENDBS
DFT
PBE  
ENDDFT
TOLINTEG
8 8 8 8 16
SCFDIR
SHRINK
8 16  
MAXCYCLE
200
TOLDEE
9 
ENDSCF
input data /mnt/lustre/a2fs-work2/work/e05/e05/bcamino/quantum_computing/test_model/optgeom/graphene_3v_B.gui
         128 PROCESSORS WORKING

         
 *******************************************************************************
 *                                                                             *
 *                               CRYSTAL17                                     *
 *                      public : 1.0.2 - March 1st, 2018 STFC/Archer2 build    *
 *                       HTTP://WWW.CRYSTAL.UNITO.IT                           *
 *                                                                             *
 *                              MAIN AUTHORS                                   *
 *                                                                             *
 *  R. DOVESI(1,11), V.R. SAUNDERS(2), C. ROETTI(1,11), R. ORLANDO(1,11),      *
 *  C.M. ZICOVICH-WILSON(1,3), F. PASCALE(4), B. CIVALLERI(1,11),              *
 *  K. DOLL(5), N.M. HARRISON(2,6), I.J. BUSH(7), Ph. D'ARCO(8),               *
 *  M. LLUNELL(9), M. CAUSA'(10), Y. NOEL(8), L. MASCHIO(1,11), A. ERBA(1,11)  *
 *  M. RE'RAT(14), S. CASASSA(1,11)                                            *
 *                                                                             *
 *        CONTRIBUTIONS TO THE CODE HAVE ALSO BEEN GIVEN BY                    *
 *                                                                             *
 *  M. FERRABONE(1,11), M. DE LA PIERRE(1,11), M. FERRERO(1,11),               *
 *  J. BAIMA(1,11), E. ALBANESE(1,11), M.F. PEINTINGER(12), R. BAST(13),       *
 *  B. KIRTMAN(15), V. LACIVITA(1,11), R. DEMICHELIS(1,16)                     *
 *  G. BRANDEBURG(17), S. SALUSTRO(1,11), G. SANSONE(1,11)                     *
 *  M.T. RUGGIERO(18)                                                          *
 *                                                                             *
 * (1) THEORETICAL CHEMISTRY GROUP - UNIVERSITA' DI TORINO - TORINO (ITALY)    *
 * (2) COMPUTATIONAL SCIENCE & ENGINEERING DEPARTMENT - STFC DARESBURY (UK)    *
 * (3) UNIVERSIDAD AUTONOMA DEL ESTADO DE MORELOS - CUERNAVACA (MEXICO)        *
 * (4) UNIVERSITE' DE LORRAINE - NANCY (FRANCE)                                *
 * (5) UNIVERSITAET STUTTGART- STUTTGART (GERMANY)                             *
 * (6) IMPERIAL COLLEGE - LONDON (UK)                                          *
 * (7) OXFORD E-RESEARCH CENTRE - OXFORD (UK)                                  *
 * (8) UPMC - SORBONNE UNIVERSITES - PARIS (FRANCE)                            *
 * (9) UNIVERSIDAD DE BARCELONA - BARCELONA (SPAIN)                            *
 *(10) UNIVERSITA' DI NAPOLI "FEDERICO II" - NAPOLI (ITALY)                    *
 *(11) NIS - NANOSTRUCTURED INTERFACES AND SURFACES - TORINO (ITALY)           *
 *(12) MPI FUER CHEMISCHE ENERGIEKONVERSION - MUELHEIM AN DER RUHR (GERMANY)   *
 *(13) UNIVERSITY OF TROMSO - TROMSO (NORWAY)                                  *
 *(14) UNIVERSITE' DE PAU ET DES PAYS DE L'ADOUR - PAU (FRANCE)                *
 *(15) UNIVERSITY OF CALIFORNIA SANTA BARBARA - SANTA BARBARA (USA)            *
 *(16) CURTIN UNIVERSITY - PERTH (AUSTRALIA)                                   *
 *(17) UNIVERSITY COLLEGE LONDON - LONDON (UK)                                 *
 *(18) CAMBRIDGE UNIVERSITY - CAMBRIDGE (UK)                                   *
 *                                                                             *
 *******************************************************************************
 EEEEEEEEEE STARTING  DATE 01 11 2022 TIME 21:27:30.4
 Final                                                                           

 GEOMETRY INPUT FROM EXTERNAL FILE (FORTRAN UNIT 34)
 3D - CRYSTAL 

 *******************************************************************************
 LATTICE PARAMETERS  (ANGSTROMS AND DEGREES) - PRIMITIVE CELL
       A          B          C        ALPHA      BETA     GAMMA        VOLUME
    7.40317    7.40317    8.68504    90.00000  90.00000 120.00000    412.228566
 INFORMATION **** CHKGRP **** SPGR WITH NO INVERSION

 NUMBER OF IRREDUCIBLE ATOMS IN THE CELL:   15

 CARTESIAN COORDINATES (ANGSTROM) - IRREDUCIBLE ATOMS AND SYMMETRY RELATED

 AT.IRR.  AT  AT.N.          X                   Y                   Z
     1     1     6    3.486408660509E+00  4.927163202039E+00  2.559062209423E+00
     2     2     6    2.669187477623E+00 -1.522709768749E+00  2.229812237465E+00
     3     3     6    3.580391362215E+00  7.669889728650E-01  2.834325205251E+00
     4     4     6    5.019510136776E+00  2.854340174864E+00  2.635691613483E+00
     5     5     6    3.778281540648E+00 -3.629028402375E+00  2.631713933037E+00
     6     6     6    4.901396057455E+00 -1.449418981964E+00  2.804742447716E+00
     7     7     6    6.162472037190E+00  7.324432971980E-01  2.351360966807E+00
     8     8     6    2.382977628860E+00  1.353624417329E+00  2.194413541833E+00
     9     9     6    3.992107093223E+00  3.758524169940E+00  2.599401018675E+00
    10    10     6    2.557451720214E+00 -2.844094457439E+00  2.752902551034E+00
    11    11     6    3.628377626973E+00 -7.105756676740E-01  2.957707528411E+00
    12    12     6    4.901748614598E+00  1.442913124589E+00  2.544705627824E+00
    13    13     6    3.638290722680E+00 -5.004366841292E+00  2.956823990002E+00
    14    14     6    4.894438276191E+00 -2.847190314095E+00  2.489200617573E+00
    15    15     6    6.100064579000E+00 -6.780953198440E-01  2.540807511467E+00

 SPACE  GROUP  N.                     :    1
 NUMBER OF SYMMETRY OPERATORS         :    1
 *******************************************************************************
 LATTICE PARAMETERS (ANGSTROMS AND DEGREES) - BOHR = 0.5291772083 ANGSTROM
 PRIMITIVE CELL - CENTRING CODE 1/0 VOLUME=   412.228566 - DENSITY  0.725 g/cm^3
         A              B              C           ALPHA      BETA       GAMMA 
     7.40317242     7.40317242     8.68503800    90.000000  90.000000 120.000000
 *******************************************************************************
 ATOMS IN THE ASYMMETRIC UNIT   15 - ATOMS IN THE UNIT CELL:   15
     ATOM                 X/A                 Y/B                 Z/C    
 *******************************************************************************
      1 T   6 C     8.668036116286E-02 -1.448115349933E-01  2.946518149285E-01
      2 T   6 C     4.792978157521E-01  2.417950684103E-01  2.567417940445E-01
      3 T   6 C     4.238142640110E-01 -4.565555924286E-01  3.263457460118E-01
      4 T   6 C     4.554204434689E-01 -9.937742590099E-02  3.034749661985E-01
      5 T   6 C    -2.066236298192E-01  2.273432143985E-01  3.030169739081E-01
      6 T   6 C    -2.248973591132E-01 -4.509686678621E-01  3.229395712162E-01
      7 T   6 C    -2.247113300100E-01 -1.104694049060E-01  2.707369808638E-01
      8 T   6 C     2.163210736414E-01  4.274509452576E-01  2.526659689725E-01
      9 T   6 C     2.461272070365E-01 -1.676416971685E-01  2.992964473702E-01
     10 T   6 C    -4.327444803061E-01  1.236514519953E-01  3.169706973112E-01
     11 T   6 C    -4.544732381436E-01  4.346956128545E-01  3.405520538207E-01
     12 T   6 C    -4.504136739468E-01 -2.253571081463E-01  2.929987903132E-01
     13 T   6 C    -1.182748568205E-01  1.011752984841E-01  3.404503227277E-01
     14 T   6 C    -1.168293812552E-01  4.390836786852E-01  2.866079132380E-01
     15 T   6 C    -1.231376601043E-01 -2.289027275701E-01  2.925499590753E-01

 T = ATOM BELONGING TO THE ASYMMETRIC UNIT
 *******************************************************************************
 * GEOMETRY EDITING - INPUT COORDINATES ARE GIVEN IN ANGSTROM         
 *******************************************************************************

 USE OF SYMMETRY WILL BE SUBSEQUENTLY SUSPENDED
 INFORMATION **** NEW DEFAULT **** FINALRUN 4 FOR GEOMETRY OPTIMIZATIONS
 INFORMATION **** NEW DEFAULT **** OPTGEOM OPTIMIZES BOTH ATOMIC COORDINATES AND CELL PARAMETERS
 INFORMATION **** NEW DEFAULT **** TOL. ON ATOMIC DISP TO REDEFINE REF. GEOMETRY: 0.8 Angs
 INFORMATION **** NEW DEFAULT **** N POINTS TO REDEFINE REF. GEOMETRY: N OF OPT DEGS OF FREEDOM
 INFORMATION **** NEW DEFAULT **** TOL. ON ENERGY TO REDEFINE REF. GEOMETRY: 10**-3*(5*N. ATOMS)
 INFORMATION **** ATOMONLY **** ONLY ATOMIC COORDINATES ARE OPTIMIZED
 INFORMATION **** MAXTRADIUS **** MAX ALLOWED TRUST RADIUS  2.000000E-01
 INFORMATION **** TRUSTRADIUS ****  INITIAL VALUE FOR TRUST RADIUS MODIFIED  2.500000E-01
 INFORMATION **** MAXCYCLE ****   MAXIMUM NUMBER OF OPTIMIZATION CYCLES         500

 IMPORTANT INFORMATION:
 THE COORDINATE SYSTEM ADOPTED IN THE OPTIMIZATION IS NOT IN
 GENERAL HOMOGENEOUS UNITS. FOR THIS REASON THE GRADIENT AND 
 HESSIAN MATRIX IN TERMS OF THIS SYSTEM ARE GIVEN WITHOUT
 UNITS. FOR MORE DETAILS SEE THE MANUAL.

 *******************************************************************************
 ATOMIC POSITIONS OPTIMIZATION CONTROL

 INITIAL TRUST RADIUS         0.25000 MAXIMUM TRUST RADIUS               0.20000
 MAXIMUM GRADIENT COMPONENT   0.00045 MAXIMUM DISPLACEMENT COMPONENT     0.00180
 R.M.S. OF GRADIENT COMPONENT 0.00030 R.M.S. OF DISPLACEMENT COMPONENTS  0.00120
 THRESHOLD ON ENERGY CHANGE 0.100E-06 EXTRAPOLATING POLYNOMIAL ORDER           2
 MAXIMUM ALLOWED NUMBER OF STEPS  500 SORTING OF ENERGY POINTS:               NO
 ANALYTICAL  GRADIENT                 HESSIAN UPDATING                      BFGS
 STEP SIZE NUMERICAL GRADIENT 0.00100
 INITIAL HESSIAN MATRIX: SCHLEGEL MODEL 2
 *******************************************************************************


 GCALCO - MAX INDICES DIRECT LATTICE VECTOR    16    16    12
 NO.OF VECTORS CREATED 6999 STARS  379 RMAX   166.99060 BOHR

 GEOMETRY FOR WAVE FUNCTION - DIMENSIONALITY OF THE SYSTEM    3
 (NON PERIODIC DIRECTION: LATTICE PARAMETER FORMALLY SET TO 500)
 *******************************************************************************
 LATTICE PARAMETERS (ANGSTROMS AND DEGREES) - BOHR = 0.5291772083 ANGSTROM
 PRIMITIVE CELL - CENTRING CODE 1/0 VOLUME=   412.228566 - DENSITY  0.725 g/cm^3
         A              B              C           ALPHA      BETA       GAMMA 
     7.40317242     7.40317242     8.68503800    90.000000  90.000000 120.000000
 *******************************************************************************
 ATOMS IN THE ASYMMETRIC UNIT   15 - ATOMS IN THE UNIT CELL:   15
     ATOM                 X/A                 Y/B                 Z/C    
 *******************************************************************************
      1 T   6 C     8.668036116286E-02 -1.448115349933E-01  2.946518149285E-01
      2 T   6 C     4.792978157521E-01  2.417950684103E-01  2.567417940445E-01
      3 T   6 C     4.238142640110E-01 -4.565555924286E-01  3.263457460118E-01
      4 T   6 C     4.554204434689E-01 -9.937742590099E-02  3.034749661985E-01
      5 T   6 C    -2.066236298192E-01  2.273432143985E-01  3.030169739081E-01
      6 T   6 C    -2.248973591132E-01 -4.509686678621E-01  3.229395712162E-01
      7 T   6 C    -2.247113300100E-01 -1.104694049060E-01  2.707369808638E-01
      8 T   6 C     2.163210736414E-01  4.274509452576E-01  2.526659689725E-01
      9 T   6 C     2.461272070365E-01 -1.676416971685E-01  2.992964473702E-01
     10 T   6 C    -4.327444803061E-01  1.236514519953E-01  3.169706973112E-01
     11 T   6 C    -4.544732381436E-01  4.346956128545E-01  3.405520538207E-01
     12 T   6 C    -4.504136739468E-01 -2.253571081463E-01  2.929987903132E-01
     13 T   6 C    -1.182748568205E-01  1.011752984841E-01  3.404503227277E-01
     14 T   6 C    -1.168293812552E-01  4.390836786852E-01  2.866079132380E-01
     15 T   6 C    -1.231376601043E-01 -2.289027275701E-01  2.925499590753E-01

 T = ATOM BELONGING TO THE ASYMMETRIC UNIT

 ****    1 SYMMOPS - TRANSLATORS IN FRACTIONAL UNITS
 **** MATRICES AND TRANSLATORS IN THE CRYSTALLOGRAPHIC REFERENCE FRAME
   V INV                    ROTATION MATRICES                   TRANSLATORS
   1   1  1.00  0.00  0.00  0.00  1.00  0.00  0.00  0.00  1.00  0.00  0.00  0.00

 DIRECT LATTICE VECTORS CARTESIAN COMPONENTS (ANGSTROM)
          X                    Y                    Z
   0.370158621205E+01  -0.641133538787E+01   0.000000000000E+00
   0.370158621205E+01   0.641133538787E+01   0.000000000000E+00
   0.000000000000E+00   0.000000000000E+00   0.868503800000E+01


 CARTESIAN COORDINATES - PRIMITIVE CELL
 *******************************************************************************
 *      ATOM          X(ANGSTROM)         Y(ANGSTROM)         Z(ANGSTROM)
 *******************************************************************************
    1     6 C     3.486408660509E+00  4.927163202039E+00  2.559062209423E+00
    2     6 C     2.669187477623E+00 -1.522709768749E+00  2.229812237465E+00
    3     6 C     3.580391362215E+00  7.669889728650E-01  2.834325205251E+00
    4     6 C     5.019510136776E+00  2.854340174864E+00  2.635691613483E+00
    5     6 C     3.778281540648E+00 -3.629028402375E+00  2.631713933037E+00
    6     6 C     4.901396057455E+00 -1.449418981964E+00  2.804742447716E+00
    7     6 C     6.162472037190E+00  7.324432971980E-01  2.351360966807E+00
    8     6 C     2.382977628860E+00  1.353624417329E+00  2.194413541833E+00
    9     6 C     3.992107093223E+00  3.758524169940E+00  2.599401018675E+00
   10     6 C     2.557451720214E+00 -2.844094457439E+00  2.752902551034E+00
   11     6 C     3.628377626973E+00 -7.105756676740E-01  2.957707528411E+00
   12     6 C     4.901748614598E+00  1.442913124589E+00  2.544705627824E+00
   13     6 C     3.638290722680E+00 -5.004366841292E+00  2.956823990002E+00
   14     6 C     4.894438276191E+00 -2.847190314095E+00  2.489200617573E+00
   15     6 C     6.100064579000E+00 -6.780953198440E-01  2.540807511467E+00

 *******************************************************************************
 LOCAL ATOMIC FUNCTIONS BASIS SET
 *******************************************************************************
   ATOM   X(AU)   Y(AU)   Z(AU)  N. TYPE  EXPONENT  S COEF   P COEF   D/F/G COEF
 *******************************************************************************
   1 C    6.588   9.311   4.836
                                  1 S  
                                         1.358E+04 2.225E-04 0.000E+00 0.000E+00
                                         2.035E+03 1.723E-03 0.000E+00 0.000E+00
                                         4.632E+02 8.926E-03 0.000E+00 0.000E+00
                                         1.312E+02 3.573E-02 0.000E+00 0.000E+00
                                         4.285E+01 1.108E-01 0.000E+00 0.000E+00
                                         1.558E+01 2.430E-01 0.000E+00 0.000E+00
                                  2 S  
                                         6.207E+00 4.144E-01 0.000E+00 0.000E+00
                                         2.576E+00 2.374E-01 0.000E+00 0.000E+00
                                  3 S  
                                         4.941E-01 1.000E+00 0.000E+00 0.000E+00
                                  4 S  
                                         1.644E-01 1.000E+00 0.000E+00 0.000E+00
                           5-     7 P  
                                         3.470E+01 0.000E+00 5.333E-03 0.000E+00
                                         7.958E+00 0.000E+00 3.586E-02 0.000E+00
                                         2.378E+00 0.000E+00 1.422E-01 0.000E+00
                                         8.143E-01 0.000E+00 3.427E-01 0.000E+00
                           8-    10 P  
                                         5.662E-01 0.000E+00 1.000E+00 0.000E+00
                          11-    13 P  
                                         1.974E-01 0.000E+00 1.000E+00 0.000E+00
                          14-    18 D  
                                         5.792E-01 0.000E+00 0.000E+00 1.000E+00
   2 C    5.044  -2.878   4.214
   3 C    6.766   1.449   5.356
   4 C    9.485   5.394   4.981
   5 C    7.140  -6.858   4.973
   6 C    9.262  -2.739   5.300
   7 C   11.645   1.384   4.443
   8 C    4.503   2.558   4.147
   9 C    7.544   7.103   4.912
  10 C    4.833  -5.375   5.202
  11 C    6.857  -1.343   5.589
  12 C    9.263   2.727   4.809
  13 C    6.875  -9.457   5.588
  14 C    9.249  -5.380   4.704
  15 C   11.527  -1.281   4.801
 INFORMATION **** SET_MPP **** PCRYSTAL CALCULATION
 INFORMATION **** READM2 **** NEW DEFAULT: FOCK/KS MATRIX MIXING SET TO 30 %
 INFORMATION **** READM2 **** NEW DEFAULT: FULL DIRECT SCF MODE
 INFORMATION **** READM2 **** NEW DEFAULT: COULOMB BIPOLAR BUFFER SET TO 32 Mb
 INFORMATION **** READM2 **** NEW DEFAULT: EXCHANGE BIPOLAR BUFFER SET TO 32 Mb

 *******************************************************************************
 NEW DEFAULT: DFT INTEGRATION GRID INCREASED TO XLGRID
 NEW DEFAULT: DIIS ACCELERATOR ACTIVE
 USE KEYWORD NODIIS TO TURN IT OFF
 *******************************************************************************

 INFORMATION **** TOLINTEG **** COULOMB AND EXCHANGE SERIES TOLERANCES MODIFIED
 INFORMATION **** READM2 **** FULL DIRECT SCF (MONO AND BIEL INT) SELECTED
 INFORMATION **** MAXCYCLE **** MAX NUMBER OF SCF CYCLES SET TO         200
 INFORMATION **** TOLDEE **** SCF TOL ON TOTAL ENERGY SET TO           9
 *******************************************************************************
 N. OF ATOMS PER CELL        15  COULOMB OVERLAP TOL         (T1) 10**   -8
 NUMBER OF SHELLS           120  COULOMB PENETRATION TOL     (T2) 10**   -8
 NUMBER OF AO               270  EXCHANGE OVERLAP TOL        (T3) 10**   20
 N. OF ELECTRONS PER CELL    90  EXCHANGE PSEUDO OVP (F(G))  (T4) 10**   20
 CORE ELECTRONS PER CELL     30  EXCHANGE PSEUDO OVP (P(G))  (T5) 10**   20
 N. OF SYMMETRY OPERATORS     1  POLE ORDER IN MONO ZONE                  4
 *******************************************************************************
 TYPE OF CALCULATION :  RESTRICTED CLOSED SHELL
 KOHN-SHAM HAMILTONIAN

 (EXCHANGE)[CORRELATION] FUNCTIONAL:(PERDEW-BURKE-ERNZERHOF)[PERDEW-BURKE-ERNZERHOF]


 CAPPA:IS1  8;IS2  8;IS3  8; K PTS MONK NET 260; SYMMOPS:K SPACE   2;G SPACE   1

 *******************************************************************************
 MAX NUMBER OF SCF CYCLES     200  CONVERGENCE ON DELTAP        10**-19
 WEIGHT OF F(I) IN F(I+1)      30% CONVERGENCE ON ENERGY        10**- 9
 SHRINK. FACT.(MONKH.)    8  8  8  NUMBER OF K POINTS IN THE IBZ    260
 SHRINKING FACTOR(GILAT NET)   16  NUMBER OF K POINTS(GILAT NET)   2052
 *******************************************************************************
 *** K POINTS COORDINATES (OBLIQUE COORDINATES IN UNITS OF IS =  8)
   1-R(  0  0  0)   2-C(  1  0  0)   3-C(  2  0  0)   4-C(  3  0  0)
   5-R(  4  0  0)   6-C(  0  1  0)   7-C(  1  1  0)   8-C(  2  1  0)
   9-C(  3  1  0)  10-C(  4  1  0)  11-C(  5  1  0)  12-C(  6  1  0)
  13-C(  7  1  0)  14-C(  0  2  0)  15-C(  1  2  0)  16-C(  2  2  0)
  17-C(  3  2  0)  18-C(  4  2  0)  19-C(  5  2  0)  20-C(  6  2  0)
  21-C(  7  2  0)  22-C(  0  3  0)  23-C(  1  3  0)  24-C(  2  3  0)
  25-C(  3  3  0)  26-C(  4  3  0)  27-C(  5  3  0)  28-C(  6  3  0)
  29-C(  7  3  0)  30-R(  0  4  0)  31-C(  1  4  0)  32-C(  2  4  0)
  33-C(  3  4  0)  34-R(  4  4  0)  35-C(  0  0  1)  36-C(  1  0  1)
  37-C(  2  0  1)  38-C(  3  0  1)  39-C(  4  0  1)  40-C(  5  0  1)
  41-C(  6  0  1)  42-C(  7  0  1)  43-C(  0  1  1)  44-C(  1  1  1)
  45-C(  2  1  1)  46-C(  3  1  1)  47-C(  4  1  1)  48-C(  5  1  1)
  49-C(  6  1  1)  50-C(  7  1  1)  51-C(  0  2  1)  52-C(  1  2  1)
  53-C(  2  2  1)  54-C(  3  2  1)  55-C(  4  2  1)  56-C(  5  2  1)
  57-C(  6  2  1)  58-C(  7  2  1)  59-C(  0  3  1)  60-C(  1  3  1)
  61-C(  2  3  1)  62-C(  3  3  1)  63-C(  4  3  1)  64-C(  5  3  1)
  65-C(  6  3  1)  66-C(  7  3  1)  67-C(  0  4  1)  68-C(  1  4  1)
  69-C(  2  4  1)  70-C(  3  4  1)  71-C(  4  4  1)  72-C(  5  4  1)
  73-C(  6  4  1)  74-C(  7  4  1)  75-C(  0  5  1)  76-C(  1  5  1)
  77-C(  2  5  1)  78-C(  3  5  1)  79-C(  4  5  1)  80-C(  5  5  1)
  81-C(  6  5  1)  82-C(  7  5  1)  83-C(  0  6  1)  84-C(  1  6  1)
  85-C(  2  6  1)  86-C(  3  6  1)  87-C(  4  6  1)  88-C(  5  6  1)
  89-C(  6  6  1)  90-C(  7  6  1)  91-C(  0  7  1)  92-C(  1  7  1)
  93-C(  2  7  1)  94-C(  3  7  1)  95-C(  4  7  1)  96-C(  5  7  1)
  97-C(  6  7  1)  98-C(  7  7  1)  99-C(  0  0  2) 100-C(  1  0  2)
 101-C(  2  0  2) 102-C(  3  0  2) 103-C(  4  0  2) 104-C(  5  0  2)
 105-C(  6  0  2) 106-C(  7  0  2) 107-C(  0  1  2) 108-C(  1  1  2)
 109-C(  2  1  2) 110-C(  3  1  2) 111-C(  4  1  2) 112-C(  5  1  2)
 113-C(  6  1  2) 114-C(  7  1  2) 115-C(  0  2  2) 116-C(  1  2  2)
 117-C(  2  2  2) 118-C(  3  2  2) 119-C(  4  2  2) 120-C(  5  2  2)
 121-C(  6  2  2) 122-C(  7  2  2) 123-C(  0  3  2) 124-C(  1  3  2)
 125-C(  2  3  2) 126-C(  3  3  2) 127-C(  4  3  2) 128-C(  5  3  2)
 129-C(  6  3  2) 130-C(  7  3  2) 131-C(  0  4  2) 132-C(  1  4  2)
 133-C(  2  4  2) 134-C(  3  4  2) 135-C(  4  4  2) 136-C(  5  4  2)
 137-C(  6  4  2) 138-C(  7  4  2) 139-C(  0  5  2) 140-C(  1  5  2)
 141-C(  2  5  2) 142-C(  3  5  2) 143-C(  4  5  2) 144-C(  5  5  2)
 145-C(  6  5  2) 146-C(  7  5  2) 147-C(  0  6  2) 148-C(  1  6  2)
 149-C(  2  6  2) 150-C(  3  6  2) 151-C(  4  6  2) 152-C(  5  6  2)
 153-C(  6  6  2) 154-C(  7  6  2) 155-C(  0  7  2) 156-C(  1  7  2)
 157-C(  2  7  2) 158-C(  3  7  2) 159-C(  4  7  2) 160-C(  5  7  2)
 161-C(  6  7  2) 162-C(  7  7  2) 163-C(  0  0  3) 164-C(  1  0  3)
 165-C(  2  0  3) 166-C(  3  0  3) 167-C(  4  0  3) 168-C(  5  0  3)
 169-C(  6  0  3) 170-C(  7  0  3) 171-C(  0  1  3) 172-C(  1  1  3)
 173-C(  2  1  3) 174-C(  3  1  3) 175-C(  4  1  3) 176-C(  5  1  3)
 177-C(  6  1  3) 178-C(  7  1  3) 179-C(  0  2  3) 180-C(  1  2  3)
 181-C(  2  2  3) 182-C(  3  2  3) 183-C(  4  2  3) 184-C(  5  2  3)
 185-C(  6  2  3) 186-C(  7  2  3) 187-C(  0  3  3) 188-C(  1  3  3)
 189-C(  2  3  3) 190-C(  3  3  3) 191-C(  4  3  3) 192-C(  5  3  3)
 193-C(  6  3  3) 194-C(  7  3  3) 195-C(  0  4  3) 196-C(  1  4  3)
 197-C(  2  4  3) 198-C(  3  4  3) 199-C(  4  4  3) 200-C(  5  4  3)
 201-C(  6  4  3) 202-C(  7  4  3) 203-C(  0  5  3) 204-C(  1  5  3)
 205-C(  2  5  3) 206-C(  3  5  3) 207-C(  4  5  3) 208-C(  5  5  3)
 209-C(  6  5  3) 210-C(  7  5  3) 211-C(  0  6  3) 212-C(  1  6  3)
 213-C(  2  6  3) 214-C(  3  6  3) 215-C(  4  6  3) 216-C(  5  6  3)
 217-C(  6  6  3) 218-C(  7  6  3) 219-C(  0  7  3) 220-C(  1  7  3)
 221-C(  2  7  3) 222-C(  3  7  3) 223-C(  4  7  3) 224-C(  5  7  3)
 225-C(  6  7  3) 226-C(  7  7  3) 227-R(  0  0  4) 228-C(  1  0  4)
 229-C(  2  0  4) 230-C(  3  0  4) 231-R(  4  0  4) 232-C(  0  1  4)
 233-C(  1  1  4) 234-C(  2  1  4) 235-C(  3  1  4) 236-C(  4  1  4)
 237-C(  5  1  4) 238-C(  6  1  4) 239-C(  7  1  4) 240-C(  0  2  4)
 241-C(  1  2  4) 242-C(  2  2  4) 243-C(  3  2  4) 244-C(  4  2  4)
 245-C(  5  2  4) 246-C(  6  2  4) 247-C(  7  2  4) 248-C(  0  3  4)
 249-C(  1  3  4) 250-C(  2  3  4) 251-C(  3  3  4) 252-C(  4  3  4)
 253-C(  5  3  4) 254-C(  6  3  4) 255-C(  7  3  4) 256-R(  0  4  4)
 257-C(  1  4  4) 258-C(  2  4  4) 259-C(  3  4  4) 260-R(  4  4  4)

 DIRECT LATTICE VECTORS COMPON. (A.U.)     RECIP. LATTICE VECTORS COMPON. (A.U.) 
        X            Y            Z              X            Y            Z
    6.9949842  -12.1156680    0.0000000      0.4491208   -0.2593000    0.0000000
    6.9949842   12.1156680    0.0000000      0.4491208    0.2593000   -0.0000000
    0.0000000    0.0000000   16.4123433     -0.0000000    0.0000000    0.3828329

 DISK SPACE FOR EIGENVECTORS (FTN 10)    37324800 REALS

 SYMMETRY ADAPTION OF THE BLOCH FUNCTIONS DISABLED
 TTTTTTTTTTTTTTTTTTTTTTTTTTTTTT gordsh1     TELAPSE        2.73 TCPU        1.00

 MATRIX SIZE: P(G)  110686, F(G)   55523, P(G) IRR   55808, F(G) IRR   55808
 MAX G-VECTOR INDEX FOR 1- AND 2-ELECTRON INTEGRALS  33

 TTTTTTTTTTTTTTTTTTTTTTTTTTTTTT INPUT       TELAPSE        2.74 TCPU        1.00

 NEIGHBORS OF THE NON-EQUIVALENT ATOMS

 N = NUMBER OF NEIGHBORS AT DISTANCE R
    ATOM  N     R/ANG      R/AU   NEIGHBORS (ATOM LABELS AND CELL INDICES)
   1 C    1     1.2740     2.4075    9 C    0 0 0
   1 C    1     1.3541     2.5589   15 C   -1 0 0
   1 C    1     2.3000     4.3464    6 C   -1 0 0
   1 C    1     2.4512     4.6320    7 C   -1 0 0
   1 C    1     2.5793     4.8742    4 C    0 0 0
   1 C    1     2.6689     5.0435   14 C   -1 0 0

   2 C    1     1.4255     2.6939   10 C    0 0 0
   2 C    1     1.4524     2.7446   11 C    0 0 0
   2 C    1     2.3062     4.3581    6 C    0 0 0
   2 C    1     2.4142     4.5621    5 C    0 0 0
   2 C    1     2.4757     4.6783    4 C    0-1 0
   2 C    1     2.5374     4.7950    3 C    0 0 0

   3 C    1     1.4790     2.7949    8 C    0 0 0
   3 C    1     1.4835     2.8034   11 C    0 0 0
   3 C    1     1.5122     2.8576   12 C    0 0 0
   3 C    1     2.5374     4.7950    2 C    0 0 0
   3 C    1     2.5431     4.8058    4 C    0 0 0
   3 C    1     2.5804     4.8762    6 C    0 0 0

   4 C    1     1.3691     2.5872    9 C    0 0 0
   4 C    1     1.4193     2.6820   12 C    0 0 0
   4 C    1     1.4347     2.7112   10 C    0 1 0
   4 C    1     2.4269     4.5861    7 C    0 0 0
   4 C    1     2.4614     4.6514    5 C    0 1 0
   4 C    1     2.4757     4.6783    2 C    0 1 0

   5 C    1     1.3702     2.5893   14 C    0 0 0
   5 C    1     1.4202     2.6837   13 C    0 0 0
   5 C    1     1.4564     2.7523   10 C    0 0 0
   5 C    1     2.4142     4.5621    2 C    0 0 0
   5 C    1     2.4528     4.6351    7 C    0-1 0
   5 C    1     2.4581     4.6450    6 C    0 0 0

   6 C    1     1.4330     2.7079   14 C    0 0 0
   6 C    1     1.4496     2.7394   15 C    0 0 0
   6 C    1     1.4798     2.7965   11 C    0 0 0
   6 C    1     2.3000     4.3464    1 C    1 0 0
   6 C    1     2.3062     4.3581    2 C    0 0 0
   6 C    1     2.4581     4.6450    5 C    0 0 0

   7 C    1     1.4246     2.6920   15 C    0 0 0
   7 C    1     1.4600     2.7590   12 C    0 0 0
   7 C    1     1.4859     2.8079   13 C    0 1 0
   7 C    1     2.4269     4.5861    4 C    0 0 0
   7 C    1     2.4512     4.6320    1 C    1 0 0
   7 C    1     2.4528     4.6351    5 C    0 1 0

   8 C    1     1.4790     2.7949    3 C    0 0 0
   8 C    1     2.5278     4.7768   14 C   -1 0 0
   8 C    1     2.5287     4.7786   11 C    0 0 0
   8 C    1     2.5446     4.8086   12 C    0 0 0
   8 C    1     2.5629     4.8431   13 C   -1 0 0
   8 C    1     2.7480     5.1929    5 C   -1 0 0

   9 C    1     1.2740     2.4075    1 C    0 0 0
   9 C    1     1.3691     2.5872    4 C    0 0 0
   9 C    1     2.2802     4.3089   10 C    0 1 0
   9 C    1     2.4885     4.7025   12 C    0 0 0
   9 C    1     2.5382     4.7966   15 C   -1 0 0
   9 C    1     2.6593     5.0253    2 C    0 1 0

  10 C    1     1.4255     2.6939    2 C    0 0 0
  10 C    1     1.4347     2.7112    4 C    0-1 0
  10 C    1     1.4564     2.7523    5 C    0 0 0
  10 C    1     2.2802     4.3089    9 C    0-1 0
  10 C    1     2.3518     4.4443   14 C    0 0 0
  10 C    1     2.3960     4.5277   11 C    0 0 0

  11 C    1     1.4524     2.7446    2 C    0 0 0
  11 C    1     1.4798     2.7965    6 C    0 0 0
  11 C    1     1.4835     2.8034    3 C    0 0 0
  11 C    1     2.3960     4.5277   10 C    0 0 0
  11 C    1     2.5068     4.7372   15 C    0 0 0
  11 C    1     2.5274     4.7760   14 C    0 0 0

  12 C    1     1.4193     2.6820    4 C    0 0 0
  12 C    1     1.4600     2.7590    7 C    0 0 0
  12 C    1     1.5122     2.8576    3 C    0 0 0
  12 C    1     2.4361     4.6036   15 C    0 0 0
  12 C    1     2.4730     4.6732   13 C    0 1 0
  12 C    1     2.4885     4.7025    9 C    0 0 0

  13 C    1     1.4202     2.6837    5 C    0 0 0
  13 C    1     1.4859     2.8079    7 C    0-1 0
  13 C    1     2.4242     4.5810   10 C    0 0 0
  13 C    1     2.4612     4.6511   15 C    0-1 0
  13 C    1     2.4730     4.6732   12 C    0-1 0
  13 C    1     2.5397     4.7993   14 C    0 0 0

  14 C    1     1.3702     2.5893    5 C    0 0 0
  14 C    1     1.4330     2.7079    6 C    0 0 0
  14 C    1     2.3518     4.4443   10 C    0 0 0
  14 C    1     2.4822     4.6906   15 C    0 0 0
  14 C    1     2.5274     4.7760   11 C    0 0 0
  14 C    1     2.5278     4.7768    8 C    1 0 0

  15 C    1     1.3541     2.5589    1 C    1 0 0
  15 C    1     1.4246     2.6920    7 C    0 0 0
  15 C    1     1.4496     2.7394    6 C    0 0 0
  15 C    1     2.4361     4.6036   12 C    0 0 0
  15 C    1     2.4612     4.6511   13 C    0 1 0
  15 C    1     2.4822     4.6906   14 C    0 0 0


 SYMMETRY ALLOWED INTERNAL DEGREE(S) OF FREEDOM:  42
 TTTTTTTTTTTTTTTTTTTTTTTTTTTTTT SYMM        TELAPSE        2.74 TCPU        1.01
 TTTTTTTTTTTTTTTTTTTTTTTTTTTTTT INT_SCREEN  TELAPSE        2.75 TCPU        1.01

 *******************************************************************************
 *                             OPTIMIZATION STARTS                             *
 *******************************************************************************
 RECLASIFICATION OF INDICES FOR INTEGRAL CALC ACCORDING TO DIFFERENT CRITERIA:
           FIXDELTE                  FIXDELTX              FIXDELTN
          0.10000000               0.80000000                 42
 *******************************************************************************

 *******************************************************************************
 COORDINATE OPTIMIZATION - POINT    1
 INFORMATION **** EXCBUF **** EXCH. BIPO BUFFER: WORDS USED =           0

 DFT PARAMETERS

     ATOM       ELECTRONS   NET CHARGE   R(ANGSTROM)
   1   6  C       6.0000      0.0000     0.77000000

 SIZE OF GRID=     505156
 TTTTTTTTTTTTTTTTTTTTTTTTTTTTTT MAKE_GRID2  TELAPSE        3.10 TCPU        1.36
 BECKE WEIGHT FUNCTION
 RADSAFE =     2.00
 TOLERANCES - DENSITY:10**- 6; POTENTIAL:10**- 9; GRID WGT:10**-14

 RADIAL INTEGRATION  - INTERVALS (POINTS,UPPER LIMIT):            1( 75,  4.0*R)

 ANGULAR INTEGRATION - INTERVALS (ACCURACY LEVEL [N. POINTS] UPPER LIMIT):
  1(  4[  86]   0.2)  2(  8[ 194]   0.5)  3( 12[ 350]   0.9)  4( 16[ 974]   3.5)
  5( 12[ 350]9999.0)
 TTTTTTTTTTTTTTTTTTTTTTTTTTTTTT INT_CALC    TELAPSE        3.12 TCPU        1.38

 *******************************************************************************
 Final                                                                           
 CRYSTAL - SCF - TYPE OF CALCULATION :  RESTRICTED CLOSED SHELL
 *******************************************************************************

 CAPPA:IS1  8;IS2  8;IS3  8; K PTS MONK NET 260; SYMMOPS:K SPACE   2;G SPACE   1

 TTTTTTTTTTTTTTTTTTTTTTTTTTTTTT SDIK        TELAPSE        3.18 TCPU        1.44

 AAAAAAAAAAAAAAAAAAAAAAAAAAAAAAAAAAAAAAAAAAAAAAAAAAAAAAAAAAAAAAAAAAAAAAAAAAAAAAA
         ATOMIC WAVEFUNCTION(S)


 NUCLEAR CHARGE  6.0  SYMMETRY SPECIES            S    P
 N. ELECTRONS    6.0  NUMBER OF PRIMITIVE GTOS   10    6
                      NUMBER OF CONTRACTED GTOS   4    3
                      NUMBER OF CLOSED SHELLS     2    0
                      OPEN SHELL OCCUPATION       0    2

  ZNUC SCFIT  TOTAL HF ENERGY   KINETIC ENERGY   VIRIAL THEOREM ACCURACY
   6.0  10   -3.768111494E+01  3.771190961E+01 -1.999183423E+00  3.4E-06

 AAAAAAAAAAAAAAAAAAAAAAAAAAAAAAAAAAAAAAAAAAAAAAAAAAAAAAAAAAAAAAAAAAAAAAAAAAAAAAA

 CHARGE NORMALIZATION FACTOR   1.00000000
 TOTAL ATOMIC CHARGES:
   6.0000000   6.0000000   6.0000000   6.0000000   6.0000000   6.0000000
   6.0000000   6.0000000   6.0000000   6.0000000   6.0000000   6.0000000
   6.0000000   6.0000000   6.0000000
 TTTTTTTTTTTTTTTTTTTTTTTTTTTTTT MOQGAD      TELAPSE        3.19 TCPU        1.45
 TTTTTTTTTTTTTTTTTTTTTTTTTTTTTT SHELLXN     TELAPSE        3.75 TCPU        2.01
 TTTTTTTTTTTTTTTTTTTTTTTTTTTTTT MONMO3      TELAPSE        3.95 TCPU        2.20
 NUMERICALLY INTEGRATED DENSITY     89.9998183680
 TTTTTTTTTTTTTTTTTTTTTTTTTTTTTT NUMDFT      TELAPSE        4.10 TCPU        2.35
 CYC   0 ETOT(AU) -5.738874987106E+02 DETOT -5.74E+02 tst  0.00E+00 PX  1.00E+00
 TTTTTTTTTTTTTTTTTTTTTTTTTTTTTT DIIS        TELAPSE        4.11 TCPU        2.36
 TTTTTTTTTTTTTTTTTTTTTTTTTTTTTT FDIK        TELAPSE        4.27 TCPU        2.52
 POSSIBLY CONDUCTING STATE - EFERMI(AU) -2.3870585E-01 (RES. CHARGE  9.17E-13;IT. 10)
 TTTTTTTTTTTTTTTTTTTTTTTTTTTTTT PDIG        TELAPSE        4.36 TCPU        2.61
 CHARGE NORMALIZATION FACTOR   1.00000000
 TOTAL ATOMIC CHARGES:
   6.0767124   5.9978237   6.0840307   6.0779730   6.1262624   5.9901109
   6.0170557   5.5670589   5.9888899   5.9483516   5.9362980   5.9256639
   6.0754611   6.1580543   6.0302534
 TTTTTTTTTTTTTTTTTTTTTTTTTTTTTT MOQGAD      TELAPSE        4.36 TCPU        2.61
 TTTTTTTTTTTTTTTTTTTTTTTTTTTTTT SHELLXN     TELAPSE        5.00 TCPU        3.25
 TTTTTTTTTTTTTTTTTTTTTTTTTTTTTT MONMO3      TELAPSE        5.19 TCPU        3.44
 NUMERICALLY INTEGRATED DENSITY     89.9998462520
 TTTTTTTTTTTTTTTTTTTTTTTTTTTTTT NUMDFT      TELAPSE        5.56 TCPU        3.82
 CYC   1 ETOT(AU) -5.703339452169E+02 DETOT  3.55E+00 tst  0.00E+00 PX  1.00E+00
 TTTTTTTTTTTTTTTTTTTTTTTTTTTTTT DIIS        TELAPSE        5.58 TCPU        3.83
 DIIS TEST: 0.86726E+00 AT SCF   CYCLE   1 - MIX   30 %
 TTTTTTTTTTTTTTTTTTTTTTTTTTTTTT FDIK        TELAPSE        5.74 TCPU        3.99
 POSSIBLY CONDUCTING STATE - EFERMI(AU) -1.7643815E-01 (RES. CHARGE  7.82E-14;IT.  8)
 TTTTTTTTTTTTTTTTTTTTTTTTTTTTTT PDIG        TELAPSE        5.84 TCPU        4.08
 CHARGE NORMALIZATION FACTOR   1.00000000
 TOTAL ATOMIC CHARGES:
   5.5728289   6.1247204   5.9961432   5.8737892   5.6868385   5.9361816
   5.9279136   8.0840629   5.9428570   5.8651979   6.1553255   6.3032433
   5.5344129   5.0671567   5.9293285
 TTTTTTTTTTTTTTTTTTTTTTTTTTTTTT MOQGAD      TELAPSE        5.84 TCPU        4.09
 TTTTTTTTTTTTTTTTTTTTTTTTTTTTTT SHELLXN     TELAPSE        6.48 TCPU        4.73
 TTTTTTTTTTTTTTTTTTTTTTTTTTTTTT MONMO3      TELAPSE        6.65 TCPU        4.89
 NUMERICALLY INTEGRATED DENSITY     89.9998163486
 TTTTTTTTTTTTTTTTTTTTTTTTTTTTTT NUMDFT      TELAPSE        7.01 TCPU        5.26
 CYC   2 ETOT(AU) -5.692281881929E+02 DETOT  1.11E+00 tst  1.11E-01 PX  3.31E-01
 TTTTTTTTTTTTTTTTTTTTTTTTTTTTTT DIIS        TELAPSE        7.02 TCPU        5.27
 DIIS TEST: 0.83856E+01 AT SCF   CYCLE   2 - DIIS ACTIVE - HISTORY:     2 CYCLES
 TTTTTTTTTTTTTTTTTTTTTTTTTTTTTT FDIK        TELAPSE        7.19 TCPU        5.43
 POSSIBLY CONDUCTING STATE - EFERMI(AU) -1.5736823E-01 (RES. CHARGE  5.59E-12;IT. 14)
 TTTTTTTTTTTTTTTTTTTTTTTTTTTTTT PDIG        TELAPSE        7.28 TCPU        5.52
 CHARGE NORMALIZATION FACTOR   1.00000000
 TOTAL ATOMIC CHARGES:
   5.8108162   5.9567811   5.9069541   5.9148683   5.8706638   6.0999697
   5.9981161   5.4827842   5.8708104   6.0608228   5.9909018   6.1217324
   6.4574606   6.3931512   6.0641673
 TTTTTTTTTTTTTTTTTTTTTTTTTTTTTT MOQGAD      TELAPSE        7.28 TCPU        5.52
 TTTTTTTTTTTTTTTTTTTTTTTTTTTTTT SHELLXN     TELAPSE        7.93 TCPU        6.17
 TTTTTTTTTTTTTTTTTTTTTTTTTTTTTT MONMO3      TELAPSE        8.09 TCPU        6.33
 NUMERICALLY INTEGRATED DENSITY     89.9998045421
 TTTTTTTTTTTTTTTTTTTTTTTTTTTTTT NUMDFT      TELAPSE        8.34 TCPU        6.59
 CYC   3 ETOT(AU) -5.703182472288E+02 DETOT -1.09E+00 tst  5.73E-02 PX  3.28E-01
 TTTTTTTTTTTTTTTTTTTTTTTTTTTTTT DIIS        TELAPSE        8.36 TCPU        6.60
 DIIS TEST: 0.11885E+01 AT SCF   CYCLE   3 - DIIS ACTIVE - HISTORY:     3 CYCLES
 TTTTTTTTTTTTTTTTTTTTTTTTTTTTTT FDIK        TELAPSE        8.54 TCPU        6.78
 INSULATING STATE
 TOP OF VALENCE BANDS -    BAND     45; K   35; EIG -1.6997195E-01 AU
 TOP OF VALENCE BANDS -    BAND     45; K    1; EIG -1.6997195E-01 AU
 BOTTOM OF VIRTUAL BANDS - BAND     46; K    3; EIG -1.6870546E-01 AU
 INDIRECT ENERGY BAND GAP:   0.0345 eV
 BOTTOM OF VIRTUAL BANDS - BAND     46; K    1; EIG -1.5473991E-01 AU
 TTTTTTTTTTTTTTTTTTTTTTTTTTTTTT PDIG        TELAPSE        8.59 TCPU        6.83
 CHARGE NORMALIZATION FACTOR   1.00000000
 TOTAL ATOMIC CHARGES:
   6.0884839   6.3671762   6.0334384   6.0435090   5.9897551   6.0170291
   5.9816016   5.8758523   6.1156897   5.9757797   5.9160855   5.9569904
   5.6614177   5.9867624   5.9904291
 TTTTTTTTTTTTTTTTTTTTTTTTTTTTTT MOQGAD      TELAPSE        8.59 TCPU        6.83
 TTTTTTTTTTTTTTTTTTTTTTTTTTTTTT SHELLXN     TELAPSE        9.24 TCPU        7.48
 TTTTTTTTTTTTTTTTTTTTTTTTTTTTTT MONMO3      TELAPSE        9.40 TCPU        7.64
 NUMERICALLY INTEGRATED DENSITY     89.9998183567
 TTTTTTTTTTTTTTTTTTTTTTTTTTTTTT NUMDFT      TELAPSE        9.78 TCPU        8.02
 CYC   4 ETOT(AU) -5.703913032214E+02 DETOT -7.31E-02 tst  6.30E-03 PX  1.11E-01
 TTTTTTTTTTTTTTTTTTTTTTTTTTTTTT DIIS        TELAPSE        9.79 TCPU        8.03
 DIIS TEST: 0.55041E+00 AT SCF   CYCLE   4 - DIIS ACTIVE - HISTORY:     4 CYCLES
 TTTTTTTTTTTTTTTTTTTTTTTTTTTTTT FDIK        TELAPSE        9.98 TCPU        8.21
 POSSIBLY CONDUCTING STATE - EFERMI(AU) -1.7719202E-01 (RES. CHARGE  8.29E-10;IT. 10)
 TTTTTTTTTTTTTTTTTTTTTTTTTTTTTT PDIG        TELAPSE       10.07 TCPU        8.30
 CHARGE NORMALIZATION FACTOR   1.00000000
 TOTAL ATOMIC CHARGES:
   5.9909775   5.5068988   6.0193776   5.9999129   6.0402673   5.9739698
   6.0099152   6.1131897   5.9916141   5.9319480   5.9423295   6.0672135
   6.3276114   6.0050371   6.0797376
 TTTTTTTTTTTTTTTTTTTTTTTTTTTTTT MOQGAD      TELAPSE       10.07 TCPU        8.30
 TTTTTTTTTTTTTTTTTTTTTTTTTTTTTT SHELLXN     TELAPSE       10.72 TCPU        8.95
 TTTTTTTTTTTTTTTTTTTTTTTTTTTTTT MONMO3      TELAPSE       10.88 TCPU        9.11
 NUMERICALLY INTEGRATED DENSITY     89.9998181199
 TTTTTTTTTTTTTTTTTTTTTTTTTTTTTT NUMDFT      TELAPSE       11.24 TCPU        9.48
 CYC   5 ETOT(AU) -5.703834202152E+02 DETOT  7.88E-03 tst  2.60E-02 PX  1.64E-01
 TTTTTTTTTTTTTTTTTTTTTTTTTTTTTT DIIS        TELAPSE       11.26 TCPU        9.49
 DIIS TEST: 0.62748E+00 AT SCF   CYCLE   5 - DIIS ACTIVE - HISTORY:     5 CYCLES
 TTTTTTTTTTTTTTTTTTTTTTTTTTTTTT FDIK        TELAPSE       11.43 TCPU        9.66
 POSSIBLY CONDUCTING STATE - EFERMI(AU) -1.8441081E-01 (RES. CHARGE  3.21E-12;IT. 12)
 TTTTTTTTTTTTTTTTTTTTTTTTTTTTTT PDIG        TELAPSE       11.51 TCPU        9.74
 CHARGE NORMALIZATION FACTOR   1.00000000
 TOTAL ATOMIC CHARGES:
   5.8888008   6.1987464   6.0203327   5.9912955   6.0024065   6.0136125
   5.9886409   5.9103329   5.8772420   5.9645545   6.0213695   6.0171455
   6.1288977   6.0097250   5.9668976
 TTTTTTTTTTTTTTTTTTTTTTTTTTTTTT MOQGAD      TELAPSE       11.51 TCPU        9.74
 TTTTTTTTTTTTTTTTTTTTTTTTTTTTTT SHELLXN     TELAPSE       12.16 TCPU       10.39
 TTTTTTTTTTTTTTTTTTTTTTTTTTTTTT MONMO3      TELAPSE       12.33 TCPU       10.55
 NUMERICALLY INTEGRATED DENSITY     89.9998190373
 TTTTTTTTTTTTTTTTTTTTTTTTTTTTTT NUMDFT      TELAPSE       12.69 TCPU       10.92
 CYC   6 ETOT(AU) -5.704558843318E+02 DETOT -7.25E-02 tst  1.25E-02 PX  1.04E-01
 TTTTTTTTTTTTTTTTTTTTTTTTTTTTTT DIIS        TELAPSE       12.71 TCPU       10.94
 DIIS TEST: 0.12705E+00 AT SCF   CYCLE   6 - DIIS ACTIVE - HISTORY:     6 CYCLES
 TTTTTTTTTTTTTTTTTTTTTTTTTTTTTT FDIK        TELAPSE       12.87 TCPU       11.10
 POSSIBLY CONDUCTING STATE - EFERMI(AU) -1.8183427E-01 (RES. CHARGE  3.76E-12;IT. 10)
 TTTTTTTTTTTTTTTTTTTTTTTTTTTTTT PDIG        TELAPSE       12.96 TCPU       11.18
 CHARGE NORMALIZATION FACTOR   1.00000000
 TOTAL ATOMIC CHARGES:
   5.9144617   5.8466328   5.9822414   5.9834203   5.9245812   6.0453821
   5.9871751   5.9946308   6.0342561   5.9794737   5.9574885   6.1098028
   5.9718921   6.1768365   6.0917248
 TTTTTTTTTTTTTTTTTTTTTTTTTTTTTT MOQGAD      TELAPSE       12.96 TCPU       11.18
 TTTTTTTTTTTTTTTTTTTTTTTTTTTTTT SHELLXN     TELAPSE       13.61 TCPU       11.83
 TTTTTTTTTTTTTTTTTTTTTTTTTTTTTT MONMO3      TELAPSE       13.77 TCPU       11.99
 NUMERICALLY INTEGRATED DENSITY     89.9998202344
 TTTTTTTTTTTTTTTTTTTTTTTTTTTTTT NUMDFT      TELAPSE       14.02 TCPU       12.25
 CYC   7 ETOT(AU) -5.704544723771E+02 DETOT  1.41E-03 tst  2.26E-03 PX  5.27E-02
 TTTTTTTTTTTTTTTTTTTTTTTTTTTTTT DIIS        TELAPSE       14.04 TCPU       12.26
 DIIS TEST: 0.14308E+00 AT SCF   CYCLE   7 - DIIS ACTIVE - HISTORY:     7 CYCLES
 TTTTTTTTTTTTTTTTTTTTTTTTTTTTTT FDIK        TELAPSE       14.22 TCPU       12.44
 POSSIBLY CONDUCTING STATE - EFERMI(AU) -1.8253460E-01 (RES. CHARGE  2.87E-10;IT. 10)
 TTTTTTTTTTTTTTTTTTTTTTTTTTTTTT PDIG        TELAPSE       14.31 TCPU       12.53
 CHARGE NORMALIZATION FACTOR   1.00000000
 TOTAL ATOMIC CHARGES:
   5.9589758   6.0457320   5.9850676   5.9941422   5.9446377   6.0128407
   5.9967057   5.9777917   6.0060795   5.9850544   5.9554268   6.0510490
   6.0963036   5.9600634   6.0301299
 TTTTTTTTTTTTTTTTTTTTTTTTTTTTTT MOQGAD      TELAPSE       14.31 TCPU       12.53
 TTTTTTTTTTTTTTTTTTTTTTTTTTTTTT SHELLXN     TELAPSE       14.96 TCPU       13.18
 TTTTTTTTTTTTTTTTTTTTTTTTTTTTTT MONMO3      TELAPSE       15.12 TCPU       13.34
 NUMERICALLY INTEGRATED DENSITY     89.9998198975
 TTTTTTTTTTTTTTTTTTTTTTTTTTTTTT NUMDFT      TELAPSE       15.48 TCPU       13.69
 CYC   8 ETOT(AU) -5.704692259620E+02 DETOT -1.48E-02 tst  4.06E-04 PX  3.03E-02
 TTTTTTTTTTTTTTTTTTTTTTTTTTTTTT DIIS        TELAPSE       15.49 TCPU       13.71
 DIIS TEST: 0.23651E-01 AT SCF   CYCLE   8 - DIIS ACTIVE - HISTORY:     8 CYCLES
 TTTTTTTTTTTTTTTTTTTTTTTTTTTTTT FDIK        TELAPSE       15.67 TCPU       13.89
 POSSIBLY CONDUCTING STATE - EFERMI(AU) -1.8262514E-01 (RES. CHARGE  7.67E-13;IT.  8)
 TTTTTTTTTTTTTTTTTTTTTTTTTTTTTT PDIG        TELAPSE       15.76 TCPU       13.97
 CHARGE NORMALIZATION FACTOR   1.00000000
 TOTAL ATOMIC CHARGES:
   5.9505945   6.0355502   6.0059941   5.9915330   5.9831808   6.0102140
   5.9856809   6.0135258   5.9681129   5.9643265   5.9754913   6.0279437
   6.0386901   6.0467211   6.0024412
 TTTTTTTTTTTTTTTTTTTTTTTTTTTTTT MOQGAD      TELAPSE       15.76 TCPU       13.97
 TTTTTTTTTTTTTTTTTTTTTTTTTTTTTT SHELLXN     TELAPSE       16.40 TCPU       14.62
 TTTTTTTTTTTTTTTTTTTTTTTTTTTTTT MONMO3      TELAPSE       16.57 TCPU       14.78
 NUMERICALLY INTEGRATED DENSITY     89.9998197618
 TTTTTTTTTTTTTTTTTTTTTTTTTTTTTT NUMDFT      TELAPSE       16.93 TCPU       15.14
 CYC   9 ETOT(AU) -5.704716098847E+02 DETOT -2.38E-03 tst  9.62E-05 PX  9.13E-03
 TTTTTTTTTTTTTTTTTTTTTTTTTTTTTT DIIS        TELAPSE       16.95 TCPU       15.16
 DIIS TEST: 0.49966E-02 AT SCF   CYCLE   9 - DIIS ACTIVE - HISTORY:     9 CYCLES
 TTTTTTTTTTTTTTTTTTTTTTTTTTTTTT FDIK        TELAPSE       17.11 TCPU       15.32
 POSSIBLY CONDUCTING STATE - EFERMI(AU) -1.8253432E-01 (RES. CHARGE  3.55E-14;IT. 10)
 TTTTTTTTTTTTTTTTTTTTTTTTTTTTTT PDIG        TELAPSE       17.20 TCPU       15.41
 CHARGE NORMALIZATION FACTOR   1.00000000
 TOTAL ATOMIC CHARGES:
   5.9384198   6.0380244   6.0139010   5.9982654   5.9791432   6.0153161
   5.9929330   5.9965925   5.9744366   5.9634392   5.9815021   6.0489501
   6.0342927   6.0061577   6.0186262
 TTTTTTTTTTTTTTTTTTTTTTTTTTTTTT MOQGAD      TELAPSE       17.20 TCPU       15.41
 TTTTTTTTTTTTTTTTTTTTTTTTTTTTTT SHELLXN     TELAPSE       17.85 TCPU       16.06
 TTTTTTTTTTTTTTTTTTTTTTTTTTTTTT MONMO3      TELAPSE       18.01 TCPU       16.22
 NUMERICALLY INTEGRATED DENSITY     89.9998199863
 TTTTTTTTTTTTTTTTTTTTTTTTTTTTTT NUMDFT      TELAPSE       18.26 TCPU       16.47
 CYC  10 ETOT(AU) -5.704720340137E+02 DETOT -4.24E-04 tst  1.70E-05 PX  4.87E-03
 TTTTTTTTTTTTTTTTTTTTTTTTTTTTTT DIIS        TELAPSE       18.28 TCPU       16.49
 DIIS TEST: 0.12267E-02 AT SCF   CYCLE  10 - DIIS ACTIVE - HISTORY:    10 CYCLES
 TTTTTTTTTTTTTTTTTTTTTTTTTTTTTT FDIK        TELAPSE       18.47 TCPU       16.67
 POSSIBLY CONDUCTING STATE - EFERMI(AU) -1.8285496E-01 (RES. CHARGE  1.14E-13;IT. 10)
 TTTTTTTTTTTTTTTTTTTTTTTTTTTTTT PDIG        TELAPSE       18.55 TCPU       16.76
 CHARGE NORMALIZATION FACTOR   1.00000000
 TOTAL ATOMIC CHARGES:
   5.9352333   6.0395936   6.0034601   5.9956395   5.9734826   6.0141963
   5.9897283   6.0117022   5.9755798   5.9649385   5.9749561   6.0450463
   6.0436690   6.0134124   6.0193620
 TTTTTTTTTTTTTTTTTTTTTTTTTTTTTT MOQGAD      TELAPSE       18.56 TCPU       16.76
 TTTTTTTTTTTTTTTTTTTTTTTTTTTTTT SHELLXN     TELAPSE       19.21 TCPU       17.41
 TTTTTTTTTTTTTTTTTTTTTTTTTTTTTT MONMO3      TELAPSE       19.37 TCPU       17.57
 NUMERICALLY INTEGRATED DENSITY     89.9998199830
 TTTTTTTTTTTTTTTTTTTTTTTTTTTTTT NUMDFT      TELAPSE       19.62 TCPU       17.82
 CYC  11 ETOT(AU) -5.704721512250E+02 DETOT -1.17E-04 tst  8.88E-07 PX  2.12E-03
 TTTTTTTTTTTTTTTTTTTTTTTTTTTTTT DIIS        TELAPSE       19.64 TCPU       17.84
 DIIS TEST: 0.25278E-03 AT SCF   CYCLE  11 - DIIS ACTIVE - HISTORY:    11 CYCLES
 TTTTTTTTTTTTTTTTTTTTTTTTTTTTTT FDIK        TELAPSE       19.83 TCPU       18.02
 POSSIBLY CONDUCTING STATE - EFERMI(AU) -1.8283765E-01 (RES. CHARGE  2.84E-13;IT.  8)
 TTTTTTTTTTTTTTTTTTTTTTTTTTTTTT PDIG        TELAPSE       19.92 TCPU       18.11
 CHARGE NORMALIZATION FACTOR   1.00000000
 TOTAL ATOMIC CHARGES:
   5.9386116   6.0340885   6.0064034   5.9941014   5.9707823   6.0136032
   5.9890109   6.0146322   5.9753796   5.9666418   5.9791117   6.0463812
   6.0422857   6.0118165   6.0171501
 TTTTTTTTTTTTTTTTTTTTTTTTTTTTTT MOQGAD      TELAPSE       19.92 TCPU       18.11
 TTTTTTTTTTTTTTTTTTTTTTTTTTTTTT SHELLXN     TELAPSE       20.56 TCPU       18.76
 TTTTTTTTTTTTTTTTTTTTTTTTTTTTTT MONMO3      TELAPSE       20.73 TCPU       18.92
 NUMERICALLY INTEGRATED DENSITY     89.9998199993
 TTTTTTTTTTTTTTTTTTTTTTTTTTTTTT NUMDFT      TELAPSE       20.98 TCPU       19.18
 CYC  12 ETOT(AU) -5.704721757259E+02 DETOT -2.45E-05 tst  1.48E-07 PX  8.61E-04
 TTTTTTTTTTTTTTTTTTTTTTTTTTTTTT DIIS        TELAPSE       21.00 TCPU       19.20
 DIIS TEST: 0.81040E-04 AT SCF   CYCLE  12 - DIIS ACTIVE - HISTORY:    12 CYCLES
 TTTTTTTTTTTTTTTTTTTTTTTTTTTTTT FDIK        TELAPSE       21.18 TCPU       19.37
 POSSIBLY CONDUCTING STATE - EFERMI(AU) -1.8277475E-01 (RES. CHARGE  1.29E-10;IT.  8)
 TTTTTTTTTTTTTTTTTTTTTTTTTTTTTT PDIG        TELAPSE       21.26 TCPU       19.46
 CHARGE NORMALIZATION FACTOR   1.00000000
 TOTAL ATOMIC CHARGES:
   5.9373370   6.0332741   6.0056106   5.9948973   5.9727908   6.0132339
   5.9906003   6.0181980   5.9763890   5.9654455   5.9757313   6.0476902
   6.0404986   6.0105118   6.0177914
 TTTTTTTTTTTTTTTTTTTTTTTTTTTTTT MOQGAD      TELAPSE       21.27 TCPU       19.46
 TTTTTTTTTTTTTTTTTTTTTTTTTTTTTT SHELLXN     TELAPSE       21.91 TCPU       20.11
 TTTTTTTTTTTTTTTTTTTTTTTTTTTTTT MONMO3      TELAPSE       22.08 TCPU       20.27
 NUMERICALLY INTEGRATED DENSITY     89.9998200051
 TTTTTTTTTTTTTTTTTTTTTTTTTTTTTT NUMDFT      TELAPSE       22.33 TCPU       20.52
 CYC  13 ETOT(AU) -5.704721834702E+02 DETOT -7.74E-06 tst  1.35E-07 PX  6.46E-04
 TTTTTTTTTTTTTTTTTTTTTTTTTTTTTT DIIS        TELAPSE       22.35 TCPU       20.54
 DIIS TEST: 0.12320E-04 AT SCF   CYCLE  13 - DIIS ACTIVE - HISTORY:    13 CYCLES
 TTTTTTTTTTTTTTTTTTTTTTTTTTTTTT FDIK        TELAPSE       22.53 TCPU       20.72
 POSSIBLY CONDUCTING STATE - EFERMI(AU) -1.8276049E-01 (RES. CHARGE  1.63E-13;IT.  8)
 TTTTTTTTTTTTTTTTTTTTTTTTTTTTTT PDIG        TELAPSE       22.62 TCPU       20.81
 CHARGE NORMALIZATION FACTOR   1.00000000
 TOTAL ATOMIC CHARGES:
   5.9376497   6.0323638   6.0054871   5.9947535   5.9725554   6.0136471
   5.9899435   6.0192891   5.9766030   5.9648818   5.9768220   6.0465464
   6.0409007   6.0096003   6.0189565
 TTTTTTTTTTTTTTTTTTTTTTTTTTTTTT MOQGAD      TELAPSE       22.62 TCPU       20.81
 TTTTTTTTTTTTTTTTTTTTTTTTTTTTTT SHELLXN     TELAPSE       23.27 TCPU       21.45
 TTTTTTTTTTTTTTTTTTTTTTTTTTTTTT MONMO3      TELAPSE       23.43 TCPU       21.62
 NUMERICALLY INTEGRATED DENSITY     89.9998199949
 TTTTTTTTTTTTTTTTTTTTTTTTTTTTTT NUMDFT      TELAPSE       23.80 TCPU       21.98
 CYC  14 ETOT(AU) -5.704721848901E+02 DETOT -1.42E-06 tst  2.35E-08 PX  2.24E-04
 TTTTTTTTTTTTTTTTTTTTTTTTTTTTTT DIIS        TELAPSE       23.82 TCPU       22.00
 DIIS TEST: 0.20903E-05 AT SCF   CYCLE  14 - DIIS ACTIVE - HISTORY:    14 CYCLES
 TTTTTTTTTTTTTTTTTTTTTTTTTTTTTT FDIK        TELAPSE       24.00 TCPU       22.19
 POSSIBLY CONDUCTING STATE - EFERMI(AU) -1.8275573E-01 (RES. CHARGE  1.68E-11;IT.  6)
 TTTTTTTTTTTTTTTTTTTTTTTTTTTTTT PDIG        TELAPSE       24.09 TCPU       22.27
 CHARGE NORMALIZATION FACTOR   1.00000000
 TOTAL ATOMIC CHARGES:
   5.9374358   6.0320326   6.0055386   5.9950286   5.9724203   6.0132636
   5.9896345   6.0194987   5.9768274   5.9652246   5.9767747   6.0468825
   6.0410856   6.0097888   6.0185635
 TTTTTTTTTTTTTTTTTTTTTTTTTTTTTT MOQGAD      TELAPSE       24.09 TCPU       22.27
 TTTTTTTTTTTTTTTTTTTTTTTTTTTTTT SHELLXN     TELAPSE       24.74 TCPU       22.92
 TTTTTTTTTTTTTTTTTTTTTTTTTTTTTT MONMO3      TELAPSE       24.90 TCPU       23.08
 NUMERICALLY INTEGRATED DENSITY     89.9998199921
 TTTTTTTTTTTTTTTTTTTTTTTTTTTTTT NUMDFT      TELAPSE       25.27 TCPU       23.45
 CYC  15 ETOT(AU) -5.704721850025E+02 DETOT -1.12E-07 tst  2.71E-09 PX  6.93E-05
 TTTTTTTTTTTTTTTTTTTTTTTTTTTTTT DIIS        TELAPSE       25.30 TCPU       23.48
 DIIS TEST: 0.65654E-06 AT SCF   CYCLE  15 - DIIS ACTIVE - HISTORY:    15 CYCLES
 TTTTTTTTTTTTTTTTTTTTTTTTTTTTTT FDIK        TELAPSE       25.48 TCPU       23.65
 POSSIBLY CONDUCTING STATE - EFERMI(AU) -1.8275461E-01 (RES. CHARGE  2.20E-13;IT.  6)
 TTTTTTTTTTTTTTTTTTTTTTTTTTTTTT PDIG        TELAPSE       25.56 TCPU       23.74
 CHARGE NORMALIZATION FACTOR   1.00000000
 TOTAL ATOMIC CHARGES:
   5.9377348   6.0322667   6.0055446   5.9948770   5.9723779   6.0132947
   5.9898188   6.0196710   5.9765307   5.9651316   5.9766604   6.0468877
   6.0409442   6.0097446   6.0185153
 TTTTTTTTTTTTTTTTTTTTTTTTTTTTTT MOQGAD      TELAPSE       25.56 TCPU       23.74
 TTTTTTTTTTTTTTTTTTTTTTTTTTTTTT SHELLXN     TELAPSE       26.21 TCPU       24.39
 TTTTTTTTTTTTTTTTTTTTTTTTTTTTTT MONMO3      TELAPSE       26.37 TCPU       24.55
 NUMERICALLY INTEGRATED DENSITY     89.9998199931
 TTTTTTTTTTTTTTTTTTTTTTTTTTTTTT NUMDFT      TELAPSE       26.62 TCPU       24.80
 CYC  16 ETOT(AU) -5.704721850176E+02 DETOT -1.51E-08 tst  5.51E-10 PX  3.32E-05
 TTTTTTTTTTTTTTTTTTTTTTTTTTTTTT DIIS        TELAPSE       26.65 TCPU       24.82
 DIIS TEST: 0.15236E-06 AT SCF   CYCLE  16 - DIIS ACTIVE - HISTORY:    16 CYCLES
 TTTTTTTTTTTTTTTTTTTTTTTTTTTTTT FDIK        TELAPSE       26.81 TCPU       24.99
 POSSIBLY CONDUCTING STATE - EFERMI(AU) -1.8275673E-01 (RES. CHARGE  1.42E-13;IT.  6)
 TTTTTTTTTTTTTTTTTTTTTTTTTTTTTT PDIG        TELAPSE       26.90 TCPU       25.07
 CHARGE NORMALIZATION FACTOR   1.00000000
 TOTAL ATOMIC CHARGES:
   5.9375957   6.0323951   6.0055499   5.9948488   5.9724125   6.0133266
   5.9898107   6.0197058   5.9766349   5.9651508   5.9766996   6.0468043
   6.0409254   6.0096882   6.0184517
 TTTTTTTTTTTTTTTTTTTTTTTTTTTTTT MOQGAD      TELAPSE       26.90 TCPU       25.07
 TTTTTTTTTTTTTTTTTTTTTTTTTTTTTT SHELLXN     TELAPSE       27.55 TCPU       25.72
 TTTTTTTTTTTTTTTTTTTTTTTTTTTTTT MONMO3      TELAPSE       27.71 TCPU       25.88
 NUMERICALLY INTEGRATED DENSITY     89.9998199936
 TTTTTTTTTTTTTTTTTTTTTTTTTTTTTT NUMDFT      TELAPSE       28.08 TCPU       26.26
 CYC  17 ETOT(AU) -5.704721850396E+02 DETOT -2.20E-08 tst  3.92E-10 PX  2.51E-05
 TTTTTTTTTTTTTTTTTTTTTTTTTTTTTT DIIS        TELAPSE       28.11 TCPU       26.28
 DIIS TEST: 0.12627E-07 AT SCF   CYCLE  17 - DIIS ACTIVE - HISTORY:    17 CYCLES
 TTTTTTTTTTTTTTTTTTTTTTTTTTTTTT FDIK        TELAPSE       28.29 TCPU       26.46
 POSSIBLY CONDUCTING STATE - EFERMI(AU) -1.8275750E-01 (RES. CHARGE  0.00E+00;IT.  6)
 TTTTTTTTTTTTTTTTTTTTTTTTTTTTTT PDIG        TELAPSE       28.38 TCPU       26.55
 CHARGE NORMALIZATION FACTOR   1.00000000
 TOTAL ATOMIC CHARGES:
   5.9376107   6.0324493   6.0055434   5.9948729   5.9724049   6.0133102
   5.9897825   6.0197108   5.9765800   5.9651440   5.9767150   6.0468132
   6.0409132   6.0096992   6.0184507
 TTTTTTTTTTTTTTTTTTTTTTTTTTTTTT MOQGAD      TELAPSE       28.38 TCPU       26.55
 TTTTTTTTTTTTTTTTTTTTTTTTTTTTTT SHELLXN     TELAPSE       29.03 TCPU       27.20
 TTTTTTTTTTTTTTTTTTTTTTTTTTTTTT MONMO3      TELAPSE       29.20 TCPU       27.36
 NUMERICALLY INTEGRATED DENSITY     89.9998199934
 TTTTTTTTTTTTTTTTTTTTTTTTTTTTTT NUMDFT      TELAPSE       29.57 TCPU       27.74
 CYC  18 ETOT(AU) -5.704721850388E+02 DETOT  8.57E-10 tst  2.97E-11 PX  7.49E-06
 TTTTTTTTTTTTTTTTTTTTTTTTTTTTTT DIIS        TELAPSE       29.59 TCPU       27.76
 DIIS TEST: 0.10609E-08 AT SCF   CYCLE  18 - DIIS ACTIVE - HISTORY:    18 CYCLES
 TTTTTTTTTTTTTTTTTTTTTTTTTTTTTT FDIK        TELAPSE       29.76 TCPU       27.92
 POSSIBLY CONDUCTING STATE - EFERMI(AU) -1.8275767E-01 (RES. CHARGE  2.44E-10;IT.  4)
 TTTTTTTTTTTTTTTTTTTTTTTTTTTTTT PDIG        TELAPSE       29.85 TCPU       28.01
 CHARGE NORMALIZATION FACTOR   1.00000000
 TOTAL ATOMIC CHARGES:
   5.9376028   6.0324485   6.0055467   5.9948638   5.9724022   6.0133084
   5.9897901   6.0197176   5.9765816   5.9651472   5.9767208   6.0468106
   6.0409192   6.0096985   6.0184420
 TTTTTTTTTTTTTTTTTTTTTTTTTTTTTT MOQGAD      TELAPSE       29.85 TCPU       28.01
 TTTTTTTTTTTTTTTTTTTTTTTTTTTTTT SHELLXN     TELAPSE       30.49 TCPU       28.66
 +++ ENERGIES IN A.U. +++
 ::: EXT EL-POLE                                  -7.8880520345386E+02
 ::: EXT EL-SPHEROPOLE                             6.0929972046774E+00
 ::: BIELET ZONE E-E                               1.1797879494870E+03
 ::: TOTAL E-E                                     3.9707574323780E+02
 ::: TOTAL E-N + N-E                              -1.5738669612569E+03
 ::: TOTAL N-N                                     1.1901738883430E+02
 ::: KINETIC ENERGY                                5.6758451721879E+02
 ::: PSEUDO TOTAL   ENERGY                        -4.9018931196601E+02
 ::: VIRIAL COEFFICIENT                            1.0731680091881E+00
 TTTTTTTTTTTTTTTTTTTTTTTTTTTTTT MONMO3      TELAPSE       30.65 TCPU       28.82
 NUMERICALLY INTEGRATED DENSITY     89.9998199933
 TTTTTTTTTTTTTTTTTTTTTTTTTTTTTT NUMDFT      TELAPSE       31.01 TCPU       29.18
 CYC  19 ETOT(AU) -5.704721850425E+02 DETOT -3.76E-09 tst  5.80E-12 PX  7.49E-06

 == SCF ENDED - CONVERGENCE ON ENERGY      E(AU) -5.7047218504251E+02 CYCLES  19


 ENERGY EXPRESSION=HARTREE+FOCK EXCH*0.00000+(PBE        EXCH)*1.00000+PBE        CORR


 TOTAL ENERGY(DFT)(AU)( 19) -5.7047218504251E+02 DE-3.8E-09 tester 5.8E-12
 TTTTTTTTTTTTTTTTTTTTTTTTTTTTTT EDFT        TELAPSE       31.01 TCPU       29.18

 *******************************************************************************
 *                             FORCE CALCULATION                               *
 *******************************************************************************

 TTTTTTTTTTTTTTTTTTTTTTTTTTTTTT NUMDFG      TELAPSE       31.64 TCPU       29.80
 INFORMATION **** EXCPOG **** EXCH. BIPO BUFFER LENGTH (WORDS) =           0
 INFORMATION **** GENPOG **** BIPO BUFFER LENGTH (WORDS) =     1094900
 TTTTTTTTTTTTTTTTTTTTTTTTTTTTTT SHELXG      TELAPSE       33.82 TCPU       31.99

 CARTESIAN FORCES IN HARTREE/BOHR (ANALYTICAL)
   ATOM                     X                   Y                   Z
   1   6             3.207429669839E-02 -3.366081831225E-02 -1.816436585152E-03
   2   6            -5.616249512198E-03  1.502376874668E-02  7.482290385242E-02
   3   6            -1.827303482297E-03  1.366832554994E-02 -5.044826897703E-02
   4   6            -7.969932791231E-03  7.676164691525E-03  3.569638567868E-03
   5   6            -4.964078890142E-03 -7.378764186192E-03  3.435730687767E-02
   6   6            -8.974607272516E-03 -3.983420516378E-03 -2.577373885175E-02
   7   6             9.017535699858E-04  7.355371694421E-03  7.568652491086E-02
   8   6             1.141404525883E-02 -4.403346464954E-03  4.312667754838E-02
   9   6            -2.005832760733E-02  2.892759255088E-02  2.809536785746E-03
  10   6            -1.846258847571E-03 -1.597064986552E-02 -6.336775816502E-02
  11   6            -5.260742956342E-03  2.598458146236E-03 -6.248574550616E-02
  12   6            -8.770231681578E-03  4.224316350276E-04  1.516607755757E-02
  13   6             2.268304954527E-03 -3.089553174547E-03 -6.963732533477E-02
  14   6             2.099415287569E-02 -3.223598504296E-04  2.347492053570E-02
  15   6            -2.364820315950E-03 -6.863200644191E-03  5.156867836782E-04

 RESULTANT FORCE     2.697841949839E-13  2.375460939064E-13  1.249000902703E-14

 SYMMETRY ALLOWED FORCES (ANALYTICAL) (DIRECTION, FORCE)

    1  4.6774305E-02    2  1.1330959E-02    3 -1.8801905E-03    4 -1.3066668E-02
    5  3.5594586E-03    6  7.7512754E-02    7 -1.0920005E-02    8  6.5545695E-03
    9 -4.6663028E-02   10 -9.6590667E-03   11 -1.5599530E-03   12  5.6918050E-03
   13  4.6696239E-03   14 -6.8735118E-03   15  3.8525439E-02   16 -5.0781110E-05
   17 -9.4705447E-03   18 -2.0792212E-02   19 -5.2343894E-03   20  4.4969285E-03
   21  8.4368461E-02   22  1.0570274E-02   23  8.5462293E-03   24  6.0856902E-02
   25 -3.5969761E-02   26 -1.5706091E-03   27  2.6724008E-02   28  1.0009378E-02
   29 -9.1726645E-03   30 -4.0873322E-02   31 -7.6292817E-03   32 -4.1597869E-03
   33 -4.9073271E-02   34 -9.6995380E-03   35 -1.0136080E-02   36  2.6311281E-02
   37 -3.2325002E-03   38 -4.7770883E-03   39 -6.6652762E-02   40  4.2532136E-03
   41  1.6616928E-02   42  1.6234630E-02
 TTTTTTTTTTTTTTTTTTTTTTTTTTTTTT TOTGRA      TELAPSE       34.45 TCPU       32.61
 INFORMATION **** opta001 **** GEOMETRY OUTPUT FILE
 CLASSICAL MODEL (SCHLEGEL) USED AS INITIAL HESSIAN MATRIX
 REFERENCE GEOMETRY DEFINED

 MAX GRADIENT      0.084368  THRESHOLD              0.000450 CONVERGED NO
 RMS GRADIENT      0.029431  THRESHOLD              0.000300 CONVERGED NO

 GRADIENT NORM     0.190736  GRADIENT THRESHOLD     0.500000

 EIGENVALUES OF THE ESTIMATED HESSIAN
  0.2956E-02  0.3870E-02  0.7765E-02  0.1179E-01  0.1517E-01  0.2150E-01
  0.2817E-01  0.3489E-01  0.4138E-01  0.5268E-01  0.6759E-01  0.7391E-01
  0.8523E-01  0.1072      0.1142      0.1185      0.1303      0.1498    
  0.1538      0.1800      0.2185      0.2540      0.3221      0.3612    
  0.4082      0.4479      0.4730      0.5089      0.5807      0.6629    
  0.7302      0.8538      0.8920      0.9531      0.9977       1.031    
   1.128       1.164       1.201       1.244       1.356       1.720    
 NEWTON STEP ( 0.5576084104E+01) EXCEEDS TRUST RADIUS ( 0.2000000000E+00)
 LEVEL SHIFT    -0.5530996878E-01

 INITIAL TRUST RADIUS    0.2000000000E+00

 PREDICTED ENERGY CHANGE    -0.285E-01

 INITIAL DISPLACEMENTS
  0.009267  0.004868 -0.002579 -0.028764 -0.026422  0.016843  0.000066 -0.001986
 -0.049545 -0.006446 -0.010648  0.001910  0.007472  0.012556  0.022794 -0.005429
 -0.007855 -0.055284 -0.004530 -0.013243  0.068304 -0.047669 -0.005251  0.079884
 -0.014372 -0.010064  0.023419 -0.002009 -0.017452 -0.039189 -0.018622 -0.009918
 -0.057208 -0.025673 -0.014828  0.034223  0.019228  0.018855 -0.088196  0.011179
  0.012407  0.027974
 TTTTTTTTTTTTTTTTTTTTTTTTTTTTTT OPTI        TELAPSE       34.46 TCPU       32.62

 OPTOPTOPTOPTOPTOPTOPTOPTOPTOPTOPTOPTOPTOPTOPTOPTOPTOPTOPTOPTOPTOPTOPTOPTOPTOPT

 - INFORMATION ON SCF MOVED TO SCFOUT.LOG
 GEOMETRY OPTIMIZATION INFORMATION STORED IN OPTINFO.DAT

 OPTOPTOPTOPTOPTOPTOPTOPTOPTOPTOPTOPTOPTOPTOPTOPTOPTOPTOPTOPTOPTOPTOPTOPTOPTOPT
 *******************************************************************************
 COORDINATE OPTIMIZATION - POINT    2
 *******************************************************************************
 LATTICE PARAMETERS (ANGSTROMS AND DEGREES) - BOHR = 0.5291772083 ANGSTROM
 PRIMITIVE CELL - CENTRING CODE 1/0 VOLUME=   412.228566 - DENSITY  0.725 g/cm^3
         A              B              C           ALPHA      BETA       GAMMA 
     7.40317242     7.40317242     8.68503800    90.000000  90.000000 120.000000
 *******************************************************************************
 ATOMS IN THE ASYMMETRIC UNIT   15 - ATOMS IN THE UNIT CELL:   15
     ATOM                 X/A                 Y/B                 Z/C    
 *******************************************************************************
      1 T   6 C     8.751443344521E-02 -1.444233380000E-01  2.944999849762E-01
      2 T   6 C     4.762062060919E-01  2.396658259886E-01  2.577415721951E-01
      3 T   6 C     4.239136871662E-01 -4.565791578658E-01  3.233802058119E-01
      4 T   6 C     4.547384509249E-01 -1.000718173797E-01  3.037628672150E-01
      5 T   6 C    -2.053621726226E-01  2.285548741147E-01  3.045074816637E-01
      6 T   6 C    -2.254151869791E-01 -4.514589611334E-01  3.197779009623E-01
      7 T   6 C    -2.252989136515E-01 -1.113068771387E-01  2.750496928922E-01
      8 T   6 C     2.132665597368E-01  4.273674300889E-01  2.571174467111E-01
      9 T   6 C     2.456113746281E-01 -1.680309457133E-01  2.998656146697E-01
     10 T   6 C    -4.324906476744E-01  1.228445221428E-01  3.138188773161E-01
     11 T   6 C    -4.548298299405E-01  4.347343515977E-01  3.368982307347E-01
     12 T   6 C    -4.509435708558E-01 -2.254629734212E-01  2.950479027207E-01
     13 T   6 C    -1.142215886503E-01  1.037533028244E-01  3.357039907586E-01
     14 T   6 C    -1.144853950268E-01  4.404797662539E-01  2.896483129766E-01
     15 T   6 C    -1.226478510383E-01 -2.289548912494E-01  2.931799183960E-01

 T = ATOM BELONGING TO THE ASYMMETRIC UNIT

 TOTAL ENERGY(DFT)(AU)( 17) -5.7050060684488E+02     DE (AU)   -2.842E-02

 UPDATED TRUST RADIUS     0.200E+00

 SYMMETRY ALLOWED FORCES  (COORDINATE, FORCE)

    1  3.8670892E-02    2  1.1002505E-02    3 -1.2854973E-03    4 -8.7361279E-03
    5  1.6302085E-03    6  7.3415395E-02    7 -1.2563976E-02    8  6.5467177E-03
    9 -3.7553089E-02   10 -5.4849114E-03   11 -6.8696382E-04   12  4.4701012E-03
   13  2.8936557E-03   14 -1.1795879E-02   15  3.2147215E-02   16  5.1325225E-03
   17 -6.2925696E-03   18 -1.5632726E-02   19 -4.3036954E-04   20  9.6895369E-03
   21  7.5811010E-02   22  7.7473757E-03   23  5.3148979E-03   24  5.3306631E-02
   25 -3.0209928E-02   26 -1.2904063E-03   27  2.4364324E-02   28  8.6201293E-03
   29 -3.5555279E-03   30 -3.5939969E-02   31 -5.4096783E-03   32 -7.7051062E-03
   33 -4.8751094E-02   34 -7.5708908E-03   35 -1.0102801E-02   36  2.3141491E-02
   37 -5.6288459E-03   38 -4.1299981E-03   39 -6.0761091E-02   40  4.3426718E-03
   41  1.5085869E-02   42  1.6311475E-02

 GRADIENT NORM     0.171204  GRADIENT THRESHOLD     0.500000

 EIGENVALUES OF THE ESTIMATED HESSIAN
  0.3007E-02  0.3929E-02  0.7808E-02  0.1181E-01  0.1537E-01  0.2250E-01
  0.2913E-01  0.3533E-01  0.4012E-01  0.5993E-01  0.6456E-01  0.6852E-01
  0.8496E-01  0.1068      0.1153      0.1190      0.1282      0.1444    
  0.1538      0.1808      0.2296      0.2420      0.3203      0.3709    
  0.4059      0.4477      0.4721      0.5057      0.5642      0.6505    
  0.7346      0.8509      0.8914      0.9531      0.9962       1.034    
   1.132       1.154       1.218       1.246       1.361       1.709    
 NEWTON STEP ( 0.2839464428E+01) EXCEEDS TRUST RADIUS ( 0.2000000000E+00)
 LEVEL SHIFT    -0.9471315617E-02

 PREDICTED ENERGY CHANGE    -0.238E-01

 MAX GRADIENT      0.075811  THRESHOLD              0.000450 CONVERGED NO
 RMS GRADIENT      0.026417  THRESHOLD              0.000300 CONVERGED NO
 MAX DISPLAC.      0.110563  THRESHOLD              0.001800 CONVERGED NO
 RMS DISPLAC.      0.030861  THRESHOLD              0.001200 CONVERGED NO
 TTTTTTTTTTTTTTTTTTTTTTTTTTTTTT OPTI        TELAPSE       63.98 TCPU       61.95
 *******************************************************************************
 COORDINATE OPTIMIZATION - POINT    3
 *******************************************************************************
 LATTICE PARAMETERS (ANGSTROMS AND DEGREES) - BOHR = 0.5291772083 ANGSTROM
 PRIMITIVE CELL - CENTRING CODE 1/0 VOLUME=   412.228566 - DENSITY  0.725 g/cm^3
         A              B              C           ALPHA      BETA       GAMMA 
     7.40317242     7.40317242     8.68503800    90.000000  90.000000 120.000000
 *******************************************************************************
 ATOMS IN THE ASYMMETRIC UNIT   15 - ATOMS IN THE UNIT CELL:   15
     ATOM                 X/A                 Y/B                 Z/C    
 *******************************************************************************
      1 T   6 C     8.878214293961E-02 -1.429724294263E-01  2.952790914715E-01
      2 T   6 C     4.733000444185E-01  2.371258485326E-01  2.595344996321E-01
      3 T   6 C     4.228903884089E-01 -4.571827746904E-01  3.207590492988E-01
      4 T   6 C     4.547006622233E-01 -1.003272680016E-01  3.025296092440E-01
      5 T   6 C    -2.047866069407E-01  2.289674925811E-01  3.032614701361E-01
      6 T   6 C    -2.249872943111E-01 -4.513424156548E-01  3.186420534036E-01
      7 T   6 C    -2.253532947127E-01 -1.117202152446E-01  2.788500087736E-01
      8 T   6 C     2.092239661293E-01  4.255551026427E-01  2.604990941499E-01
      9 T   6 C     2.456722193571E-01 -1.675243438148E-01  2.997668315443E-01
     10 T   6 C    -4.318208059909E-01  1.223847210863E-01  3.108185865939E-01
     11 T   6 C    -4.553330411227E-01  4.344404996428E-01  3.332322934374E-01
     12 T   6 C    -4.516209893059E-01 -2.259239558171E-01  2.958568821223E-01
     13 T   6 C    -1.121636399762E-01  1.058438248518E-01  3.310163727664E-01
     14 T   6 C    -1.112586927150E-01  4.422138370471E-01  2.954164869358E-01
     15 T   6 C    -1.216895028475E-01 -2.284268126253E-01  2.945376704904E-01

 T = ATOM BELONGING TO THE ASYMMETRIC UNIT

 TOTAL ENERGY(DFT)(AU)( 16) -5.7052416742488E+02     DE (AU)   -2.356E-02

 UPDATED TRUST RADIUS     0.200E+00

 SYMMETRY ALLOWED FORCES  (COORDINATE, FORCE)

    1  3.3226683E-02    2  1.0139954E-02    3 -1.6134977E-03    4 -5.4251918E-03
    5  3.4121197E-03    6  6.7940043E-02    7 -1.1309487E-02    8  5.3799564E-03
    9 -3.1871540E-02   10 -2.7203257E-03   11 -1.7187740E-03   12  4.6097079E-03
   13  1.3219259E-03   14 -9.3772082E-03   15  3.2051932E-02   16  9.4554976E-03
   17 -4.1983032E-03   18 -1.1664662E-02   19  2.7936801E-03   20  1.1502308E-02
   21  6.7432296E-02   22  6.0858154E-03   23  6.3000197E-03   24  4.8364516E-02
   25 -2.5076398E-02   26 -6.2127459E-04   27  2.2889932E-02   28  6.5827817E-03
   29 -9.4495422E-04   30 -3.3310362E-02   31 -3.8974394E-03   32 -8.7432282E-03
   33 -4.5825995E-02   34 -6.1388662E-03   35 -8.1857430E-03   36  2.1835259E-02
   37 -3.8567547E-03   38 -3.8876646E-03   39 -5.5095063E-02   40  3.5085929E-03
   41  1.3294413E-02   42  1.2748080E-02

 GRADIENT NORM     0.155019  GRADIENT THRESHOLD     0.500000

 EIGENVALUES OF THE ESTIMATED HESSIAN
  0.2989E-02  0.3917E-02  0.7915E-02  0.1221E-01  0.1589E-01  0.2387E-01
  0.2880E-01  0.3535E-01  0.4205E-01  0.5524E-01  0.6847E-01  0.8294E-01
  0.8385E-01  0.1011      0.1161      0.1190      0.1285      0.1426    
  0.1524      0.1813      0.2259      0.2384      0.3204      0.3772    
  0.4057      0.4473      0.4692      0.5059      0.5608      0.6473    
  0.7373      0.8508      0.8912      0.9536      0.9964       1.034    
   1.134       1.158       1.230       1.249       1.362       1.706    
 NEWTON STEP ( 0.3043417076E+01) EXCEEDS TRUST RADIUS ( 0.2000000000E+00)
 LEVEL SHIFT    -0.2610560927E-01

 PREDICTED ENERGY CHANGE    -0.244E-01

 MAX GRADIENT      0.067940  THRESHOLD              0.000450 CONVERGED NO
 RMS GRADIENT      0.023920  THRESHOLD              0.000300 CONVERGED NO
 MAX DISPLAC.      0.097883  THRESHOLD              0.001800 CONVERGED NO
 RMS DISPLAC.      0.030861  THRESHOLD              0.001200 CONVERGED NO
 TTTTTTTTTTTTTTTTTTTTTTTTTTTTTT OPTI        TELAPSE       93.20 TCPU       91.01
 *******************************************************************************
 COORDINATE OPTIMIZATION - POINT    4
 *******************************************************************************
 LATTICE PARAMETERS (ANGSTROMS AND DEGREES) - BOHR = 0.5291772083 ANGSTROM
 PRIMITIVE CELL - CENTRING CODE 1/0 VOLUME=   412.228566 - DENSITY  0.725 g/cm^3
         A              B              C           ALPHA      BETA       GAMMA 
     7.40317242     7.40317242     8.68503800    90.000000  90.000000 120.000000
 *******************************************************************************
 ATOMS IN THE ASYMMETRIC UNIT   15 - ATOMS IN THE UNIT CELL:   15
     ATOM                 X/A                 Y/B                 Z/C    
 *******************************************************************************
      1 T   6 C     9.038899099245E-02 -1.416040381733E-01  2.947171415215E-01
      2 T   6 C     4.705133747359E-01  2.346403573017E-01  2.624072405836E-01
      3 T   6 C     4.221013103477E-01 -4.575850137497E-01  3.182583745851E-01
      4 T   6 C     4.545420601226E-01 -1.011648407179E-01  3.019321249102E-01
      5 T   6 C    -2.053143440706E-01  2.293438469674E-01  3.050856138329E-01
      6 T   6 C    -2.234830502366E-01 -4.511092646491E-01  3.177070594839E-01
      7 T   6 C    -2.248578447913E-01 -1.117688219206E-01  2.830762093864E-01
      8 T   6 C     2.054626215720E-01  4.255974365718E-01  2.640846845395E-01
      9 T   6 C     2.455415357826E-01 -1.676964409565E-01  2.997471548607E-01
     10 T   6 C    -4.319667812256E-01  1.213602517350E-01  3.076740144522E-01
     11 T   6 C    -4.553960209149E-01  4.342244781383E-01  3.287989348720E-01
     12 T   6 C    -4.518966803800E-01 -2.262702625454E-01  2.979313300347E-01
     13 T   6 C    -1.095927895973E-01  1.082549387079E-01  3.253499960538E-01
     14 T   6 C    -1.100794999498E-01  4.427686297730E-01  2.973074366660E-01
     15 T   6 C    -1.204073268332E-01 -2.278801453729E-01  2.959226842177E-01

 T = ATOM BELONGING TO THE ASYMMETRIC UNIT

 TOTAL ENERGY(DFT)(AU)( 16) -5.7054804724032E+02     DE (AU)   -2.388E-02

 UPDATED TRUST RADIUS     0.200E+00

 SYMMETRY ALLOWED FORCES  (COORDINATE, FORCE)

    1  2.5744126E-02    2  8.9741057E-03    3 -6.0450279E-04    4 -4.3780655E-03
    5  3.2515951E-03    6  5.8498723E-02    7 -1.0844825E-02    8  3.1174925E-03
    9 -2.6396699E-02   10 -1.3138149E-03   11 -1.8403141E-03   12  3.9667917E-03
   13  4.1957207E-03   14 -1.0752741E-02   15  2.2685996E-02   16  6.1008428E-03
   17 -1.5133192E-03   18 -1.1819502E-02   19  4.0272830E-03   20  1.1480610E-02
   21  5.6303799E-02   22  4.6616242E-03   23  4.9802052E-03   24  4.1041902E-02
   25 -1.8304161E-02   26 -1.8728302E-03   27  1.7955611E-02   28  5.1263184E-03
   29  1.5288916E-04   30 -2.7163311E-02   31 -2.5708172E-03   32 -8.8626076E-03
   33 -4.1578061E-02   34 -4.4947396E-03   35 -6.2684826E-03   36  1.6535655E-02
   37 -6.1397222E-03   38 -3.7005438E-03   39 -4.7441019E-02   40  5.3258959E-03
   41  1.1319780E-02   42  1.3180084E-02

 GRADIENT NORM     0.130847  GRADIENT THRESHOLD     0.500000

 EIGENVALUES OF THE ESTIMATED HESSIAN
  0.3005E-02  0.3966E-02  0.7816E-02  0.1225E-01  0.1590E-01  0.2325E-01
  0.2941E-01  0.3531E-01  0.4069E-01  0.6714E-01  0.6794E-01  0.7385E-01
  0.8468E-01  0.1095      0.1167      0.1190      0.1424      0.1447    
  0.1584      0.1802      0.2330      0.2359      0.3204      0.3768    
  0.4057      0.4464      0.4697      0.5065      0.5568      0.6454    
  0.7376      0.8501      0.8942      0.9536      0.9972       1.034    
   1.134       1.156       1.231       1.252       1.363       1.711    
 NEWTON STEP ( 0.2609744733E+01) EXCEEDS TRUST RADIUS ( 0.2000000000E+00)
 LEVEL SHIFT    -0.1332475899E-01

 PREDICTED ENERGY CHANGE    -0.181E-01

 MAX GRADIENT      0.058499  THRESHOLD              0.000450 CONVERGED NO
 RMS GRADIENT      0.020190  THRESHOLD              0.000300 CONVERGED NO
 MAX DISPLAC.      0.088953  THRESHOLD              0.001800 CONVERGED NO
 RMS DISPLAC.      0.030861  THRESHOLD              0.001200 CONVERGED NO
 TTTTTTTTTTTTTTTTTTTTTTTTTTTTTT OPTI        TELAPSE      121.49 TCPU      118.91
 *******************************************************************************
 COORDINATE OPTIMIZATION - POINT    5
 *******************************************************************************
 LATTICE PARAMETERS (ANGSTROMS AND DEGREES) - BOHR = 0.5291772083 ANGSTROM
 PRIMITIVE CELL - CENTRING CODE 1/0 VOLUME=   412.228566 - DENSITY  0.725 g/cm^3
         A              B              C           ALPHA      BETA       GAMMA 
     7.40317242     7.40317242     8.68503800    90.000000  90.000000 120.000000
 *******************************************************************************
 ATOMS IN THE ASYMMETRIC UNIT   15 - ATOMS IN THE UNIT CELL:   15
     ATOM                 X/A                 Y/B                 Z/C    
 *******************************************************************************
      1 T   6 C     9.170021399548E-02 -1.403240752982E-01  2.954645947876E-01
      2 T   6 C     4.685857030399E-01  2.327226995011E-01  2.640649050389E-01
      3 T   6 C     4.211867649451E-01 -4.581307441746E-01  3.153719908378E-01
      4 T   6 C     4.546162294378E-01 -1.018118850324E-01  3.011292374994E-01
      5 T   6 C    -2.051889848844E-01  2.292487282971E-01  3.048013639369E-01
      6 T   6 C    -2.225745249544E-01 -4.506148843183E-01  3.159422160576E-01
      7 T   6 C    -2.241997623514E-01 -1.113519792959E-01  2.862921194869E-01
      8 T   6 C     2.011457457222E-01  4.251115166384E-01  2.679174184107E-01
      9 T   6 C     2.455379664699E-01 -1.679901451628E-01  2.991088951072E-01
     10 T   6 C    -4.315865976731E-01  1.209214725979E-01  3.044896710177E-01
     11 T   6 C    -4.556594929578E-01  4.339028203803E-01  3.239726922963E-01
     12 T   6 C    -4.522024001703E-01 -2.266178366017E-01  2.980982599311E-01
     13 T   6 C    -1.096932234199E-01  1.089247579572E-01  3.225616922279E-01
     14 T   6 C    -1.067264124158E-01  4.441249940314E-01  3.035717979072E-01
     15 T   6 C    -1.193856692295E-01 -2.270043284100E-01  2.972131454570E-01

 T = ATOM BELONGING TO THE ASYMMETRIC UNIT

 TOTAL ENERGY(DFT)(AU)( 14) -5.7056560064806E+02     DE (AU)   -1.755E-02

 UPDATED TRUST RADIUS     0.200E+00

 SYMMETRY ALLOWED FORCES  (COORDINATE, FORCE)

    1  2.1071219E-02    2  7.8771098E-03    3 -2.5470577E-04    4 -2.2409794E-03
    5  2.7495473E-03    6  4.9749520E-02    7 -1.2055841E-02    8  1.3491862E-03
    9 -2.2632753E-02   10 -1.5278029E-03   11 -5.8669855E-04   12  2.0055478E-03
   13 -2.5208067E-04   14 -4.9682324E-03   15  2.2319501E-02   16  8.2653218E-03
   17 -5.7274303E-04   18 -7.0692354E-03   19  2.7751864E-03   20  8.4636882E-03
   21  4.8191649E-02   22  4.9005565E-03   23  6.9322102E-03   24  3.7284117E-02
   25 -1.4761320E-02   26 -1.2820789E-03   27  1.5994642E-02   28  4.1407460E-03
   29  1.5262488E-04   30 -2.1612884E-02   31 -1.8163362E-03   32 -6.3148152E-03
   33 -3.5595909E-02   34 -2.8563143E-03   35 -3.8424445E-03   36  1.6824513E-02
   37 -2.1640238E-03   38 -8.8709029E-04   39 -3.9907878E-02   40  1.9567493E-03
   41  7.8604978E-03   42  8.2258000E-03

 GRADIENT NORM     0.111681  GRADIENT THRESHOLD     0.500000

 EIGENVALUES OF THE ESTIMATED HESSIAN
  0.2980E-02  0.4003E-02  0.8208E-02  0.1303E-01  0.1589E-01  0.2631E-01
  0.2873E-01  0.3502E-01  0.4506E-01  0.6336E-01  0.6893E-01  0.8378E-01
  0.9294E-01  0.1093      0.1187      0.1227      0.1321      0.1425    
  0.1561      0.1850      0.2230      0.2345      0.3205      0.3787    
  0.4055      0.4456      0.4659      0.5069      0.5571      0.6481    
  0.7440      0.8503      0.8936      0.9536      0.9995       1.035    
   1.134       1.164       1.231       1.252       1.366       1.712    
 NEWTON STEP ( 0.3490566140E+01) EXCEEDS TRUST RADIUS ( 0.2000000000E+00)
 LEVEL SHIFT    -0.2711335565E-01

 PREDICTED ENERGY CHANGE    -0.170E-01

 MAX GRADIENT      0.049750  THRESHOLD              0.000450 CONVERGED NO
 RMS GRADIENT      0.017233  THRESHOLD              0.000300 CONVERGED NO
 MAX DISPLAC.      0.088456  THRESHOLD              0.001800 CONVERGED NO
 RMS DISPLAC.      0.030861  THRESHOLD              0.001200 CONVERGED NO
 TTTTTTTTTTTTTTTTTTTTTTTTTTTTTT OPTI        TELAPSE      146.54 TCPU      143.66
 *******************************************************************************
 COORDINATE OPTIMIZATION - POINT    6
 *******************************************************************************
 LATTICE PARAMETERS (ANGSTROMS AND DEGREES) - BOHR = 0.5291772083 ANGSTROM
 PRIMITIVE CELL - CENTRING CODE 1/0 VOLUME=   412.228566 - DENSITY  0.725 g/cm^3
         A              B              C           ALPHA      BETA       GAMMA 
     7.40317242     7.40317242     8.68503800    90.000000  90.000000 120.000000
 *******************************************************************************
 ATOMS IN THE ASYMMETRIC UNIT   15 - ATOMS IN THE UNIT CELL:   15
     ATOM                 X/A                 Y/B                 Z/C    
 *******************************************************************************
      1 T   6 C     9.320042852242E-02 -1.391996923676E-01  2.961106771257E-01
      2 T   6 C     4.662387190830E-01  2.304610840055E-01  2.680220491401E-01
      3 T   6 C     4.203227480125E-01 -4.583521340060E-01  3.135184113597E-01
      4 T   6 C     4.546972128996E-01 -1.024326464988E-01  3.000675164778E-01
      5 T   6 C    -2.062959845028E-01  2.291280941904E-01  3.053865746519E-01
      6 T   6 C    -2.209420451288E-01 -4.502559904970E-01  3.148291511968E-01
      7 T   6 C    -2.235707103584E-01 -1.113927824234E-01  2.905646068561E-01
      8 T   6 C     1.984731375556E-01  4.259462277143E-01  2.722798705465E-01
      9 T   6 C     2.454841777140E-01 -1.686787628546E-01  2.981734751562E-01
     10 T   6 C    -4.318243585367E-01  1.199656575954E-01  3.027000690111E-01
     11 T   6 C    -4.554170174855E-01  4.340844555009E-01  3.194922390180E-01
     12 T   6 C    -4.521322147335E-01 -2.266603614614E-01  3.005438317292E-01
     13 T   6 C    -1.075956765496E-01  1.113428470947E-01  3.165849216389E-01
     14 T   6 C    -1.068730733032E-01  4.437891509902E-01  3.032683399330E-01
     15 T   6 C    -1.182097876346E-01 -2.266340358730E-01  2.984582661591E-01

 T = ATOM BELONGING TO THE ASYMMETRIC UNIT

 TOTAL ENERGY(DFT)(AU)( 13) -5.7058187282173E+02     DE (AU)   -1.627E-02

[...]
   8 C    1     2.5614     4.8404    5 C   -1 0 0
   8 C    1     2.6031     4.9191   11 C    0 0 0
   8 C    1     2.6127     4.9373   12 C    0 0 0

   9 C    1     1.2608     2.3826    1 C    0 0 0
   9 C    1     1.3804     2.6085    4 C    0 0 0
   9 C    1     2.3141     4.3730   10 C    0 1 0
   9 C    1     2.4567     4.6425   12 C    0 0 0
   9 C    1     2.4801     4.6868   15 C   -1 0 0
   9 C    1     2.6094     4.9310    2 C    0 1 0

  10 C    1     1.3850     2.6173    2 C    0 0 0
  10 C    1     1.4310     2.7042    4 C    0-1 0
  10 C    1     1.4468     2.7341    5 C    0 0 0
  10 C    1     2.3141     4.3730    9 C    0-1 0
  10 C    1     2.4348     4.6012   14 C    0 0 0
  10 C    1     2.4350     4.6015   11 C    0 0 0

  11 C    1     1.3649     2.5792    2 C    0 0 0
  11 C    1     1.5117     2.8568    3 C    0 0 0
  11 C    1     1.5309     2.8929    6 C    0 0 0
  11 C    1     2.4350     4.6015   10 C    0 0 0
  11 C    1     2.4895     4.7044   12 C    0 0 0
  11 C    1     2.5565     4.8310   15 C    0 0 0

  12 C    1     1.3846     2.6165    4 C    0 0 0
  12 C    1     1.4811     2.7988    7 C    0 0 0
  12 C    1     1.5029     2.8400    3 C    0 0 0
  12 C    1     2.4567     4.6425    9 C    0 0 0
  12 C    1     2.4844     4.6948   10 C    0 1 0
  12 C    1     2.4895     4.7044   11 C    0 0 0

  13 C    1     1.3842     2.6157    5 C    0 0 0
  13 C    1     1.4297     2.7018    7 C    0-1 0
  13 C    1     2.2657     4.2816    8 C    1 0 0
  13 C    1     2.4322     4.5962   14 C    0 0 0
  13 C    1     2.4376     4.6064   10 C    0 0 0
  13 C    1     2.4750     4.6770   15 C    0-1 0

  14 C    1     1.3871     2.6213    5 C    0 0 0
  14 C    1     1.4211     2.6854    6 C    0 0 0
  14 C    1     2.2413     4.2354    8 C    1 0 0
  14 C    1     2.4322     4.5962   13 C    0 0 0
  14 C    1     2.4348     4.6012   10 C    0 0 0
  14 C    1     2.4964     4.7174   15 C    0 0 0

  15 C    1     1.3806     2.6090    1 C    1 0 0
  15 C    1     1.4177     2.6790    7 C    0 0 0
  15 C    1     1.4443     2.7294    6 C    0 0 0
  15 C    1     2.4750     4.6770   13 C    0 1 0
  15 C    1     2.4801     4.6868    9 C    1 0 0
  15 C    1     2.4922     4.7096   12 C    0 0 0


 FINAL OPTIMIZED GEOMETRY - DIMENSIONALITY OF THE SYSTEM      3
 (NON PERIODIC DIRECTION: LATTICE PARAMETER FORMALLY SET TO 500)
 *******************************************************************************
 LATTICE PARAMETERS (ANGSTROMS AND DEGREES) - BOHR = 0.5291772083 ANGSTROM
 PRIMITIVE CELL - CENTRING CODE 1/0 VOLUME=   412.228566 - DENSITY  0.725 g/cm^3
         A              B              C           ALPHA      BETA       GAMMA 
     7.40317242     7.40317242     8.68503800    90.000000  90.000000 120.000000
 *******************************************************************************
 ATOMS IN THE ASYMMETRIC UNIT   15 - ATOMS IN THE UNIT CELL:   15
     ATOM                 X/A                 Y/B                 Z/C    
 *******************************************************************************
      1 T   6 C     1.045145301252E-01 -1.310291964860E-01  2.990846737088E-01
      2 T   6 C     4.549625949097E-01  2.226546720400E-01  2.997947365453E-01
      3 T   6 C     4.150264027586E-01 -4.590037231509E-01  3.002841414374E-01
      4 T   6 C     4.546314848155E-01 -1.065157002729E-01  2.993632050572E-01
      5 T   6 C    -2.093417303990E-01  2.281916209209E-01  3.007748440080E-01
      6 T   6 C    -2.171250037266E-01 -4.459348773291E-01  3.002483039435E-01
      7 T   6 C    -2.179622676662E-01 -1.077256161465E-01  3.003180922637E-01
      8 T   6 C     1.901675135529E-01  4.299634820576E-01  3.002675685713E-01
      9 T   6 C     2.419049719316E-01 -1.841782428287E-01  2.979288219314E-01
     10 T   6 C    -4.349990675140E-01  1.166797188382E-01  3.000805269941E-01
     11 T   6 C    -4.558993359357E-01  4.346447952415E-01  3.001535708684E-01
     12 T   6 C    -4.489547661328E-01 -2.256645221410E-01  3.000178489095E-01
     13 T   6 C    -1.064407077552E-01  1.152726847105E-01  3.007967709541E-01
     14 T   6 C    -1.050501235546E-01  4.444983481982E-01  3.009400236576E-01
     15 T   6 C    -1.098789398554E-01 -2.207423325424E-01  2.999468711499E-01

 T = ATOM BELONGING TO THE ASYMMETRIC UNIT
 INFORMATION **** fort.34 **** GEOMETRY OUTPUT FILE

 DIRECT LATTICE VECTORS CARTESIAN COMPONENTS (ANGSTROM)
          X                    Y                    Z
   0.370158621205E+01  -0.641133538787E+01   0.000000000000E+00
   0.370158621205E+01   0.641133538787E+01   0.000000000000E+00
   0.000000000000E+00   0.000000000000E+00   0.868503800000E+01


 CARTESIAN COORDINATES - PRIMITIVE CELL
 *******************************************************************************
 *      ATOM          X(ANGSTROM)         Y(ANGSTROM)         Z(ANGSTROM)
 *******************************************************************************
    1     6 C     3.603439888632E+00  4.901185558057E+00  2.597561756379E+00
    2     6 C     2.508258732388E+00 -1.489404006777E+00  2.603728679096E+00
    3     6 C     3.538800369243E+00  8.076351115623E-01  2.607979179181E+00
    4     6 C     4.990166800310E+00  2.813632582309E+00  2.599980811724E+00
    5     6 C     3.771360706905E+00 -3.606162329179E+00  2.612240949654E+00
    6     6 C     4.948799110621E+00 -1.466976839722E+00  2.607667929185E+00
    7     6 C     6.197610643947E+00  7.067641449289E-01  2.608274043398E+00
    8     6 C     2.295468343017E+00  1.537412378743E+00  2.607835243209E+00
    9     6 C     3.915266676564E+00  3.679572994900E+00  2.587523139770E+00
   10     6 C     2.523299699963E+00 -2.874337662193E+00  2.606210780003E+00
   11     6 C     3.622910697273E+00 -7.017582851939E-01  2.606845168827E+00
   12     6 C     4.906010968243E+00  1.431588643071E+00  2.605666418457E+00
   13     6 C     3.734278536173E+00 -4.989856468790E+00  2.612431386013E+00
   14     6 C     4.958083080096E+00 -2.887995823571E+00  2.613675541187E+00
   15     6 C     6.179349280782E+00 -7.107823927538E-01  2.605049973918E+00

 ****    1 SYMMOPS - TRANSLATORS IN FRACTIONAL UNITS
 **** MATRICES AND TRANSLATORS IN THE CRYSTALLOGRAPHIC REFERENCE FRAME
   V INV                    ROTATION MATRICES                   TRANSLATORS
   1   1  1.00  0.00  0.00  0.00  1.00  0.00  0.00  0.00  1.00  0.00  0.00  0.00
 TTTTTTTTTTTTTTTTTTTTTTTTTTTTTT END         TELAPSE      628.00 TCPU      619.76
 EEEEEEEEEE TERMINATION  DATE 01 11 2022 TIME 21:37:56.1
NODE    0 CPU TIME =       619.764
    TOTAL CPU TIME =     79802.785
Note: The following floating-point exceptions are signalling: IEEE_UNDERFLOW_FLAG IEEE_DENORMAL
Note: The following floating-point exceptions are signalling: IEEE_UNDERFLOW_FLAG IEEE_DENORMAL
Note: The following floating-point exceptions are signalling: IEEE_UNDERFLOW_FLAG IEEE_DENORMAL
Note: The following floating-point exceptions are signalling: IEEE_UNDERFLOW_FLAG IEEE_DENORMAL
Note: The following floating-point exceptions are signalling: IEEE_UNDERFLOW_FLAG IEEE_DENORMAL
Note: The following floating-point exceptions are signalling: IEEE_UNDERFLOW_FLAG IEEE_DENORMAL
Note: The following floating-point exceptions are signalling: IEEE_UNDERFLOW_FLAG IEEE_DENORMAL
Note: The following floating-point exceptions are signalling: IEEE_UNDERFLOW_FLAG IEEE_DENORMAL
Note: The following floating-point exceptions are signalling: IEEE_UNDERFLOW_FLAG IEEE_DENORMAL
Note: The following floating-point exceptions are signalling: IEEE_UNDERFLOW_FLAG IEEE_DENORMAL
Note: The following floating-point exceptions are signalling: IEEE_UNDERFLOW_FLAG IEEE_DENORMAL
Note: The following floating-point exceptions are signalling: IEEE_UNDERFLOW_FLAG IEEE_DENORMAL
Note: The following floating-point exceptions are signalling: IEEE_UNDERFLOW_FLAG IEEE_DENORMAL
Note: The following floating-point exceptions are signalling: IEEE_UNDERFLOW_FLAG IEEE_DENORMAL
Note: The following floating-point exceptions are signalling: IEEE_UNDERFLOW_FLAG IEEE_DENORMAL
Note: The following floating-point exceptions are signalling: IEEE_UNDERFLOW_FLAG IEEE_DENORMAL
Note: The following floating-point exceptions are signalling: IEEE_UNDERFLOW_FLAG IEEE_DENORMAL
Note: The following floating-point exceptions are signalling: IEEE_UNDERFLOW_FLAG IEEE_DENORMAL
Note: The following floating-point exceptions are signalling: IEEE_UNDERFLOW_FLAG IEEE_DENORMAL
Note: The following floating-point exceptions are signalling: IEEE_UNDERFLOW_FLAG IEEE_DENORMAL
Note: The following floating-point exceptions are signalling: IEEE_UNDERFLOW_FLAG IEEE_DENORMAL
Note: The following floating-point exceptions are signalling: IEEE_UNDERFLOW_FLAG IEEE_DENORMAL
Note: The following floating-point exceptions are signalling: IEEE_UNDERFLOW_FLAG IEEE_DENORMAL
Note: The following floating-point exceptions are signalling: IEEE_UNDERFLOW_FLAG IEEE_DENORMAL
Note: The following floating-point exceptions are signalling: IEEE_UNDERFLOW_FLAG IEEE_DENORMAL
Note: The following floating-point exceptions are signalling: IEEE_UNDERFLOW_FLAG IEEE_DENORMAL
Note: The following floating-point exceptions are signalling: IEEE_UNDERFLOW_FLAG IEEE_DENORMAL
Note: The following floating-point exceptions are signalling: IEEE_UNDERFLOW_FLAG IEEE_DENORMAL
Note: The following floating-point exceptions are signalling: IEEE_UNDERFLOW_FLAG IEEE_DENORMAL
Note: The following floating-point exceptions are signalling: IEEE_UNDERFLOW_FLAG IEEE_DENORMAL
Note: The following floating-point exceptions are signalling: IEEE_UNDERFLOW_FLAG IEEE_DENORMAL
Note: The following floating-point exceptions are signalling: IEEE_UNDERFLOW_FLAG IEEE_DENORMAL
Note: The following floating-point exceptions are signalling: IEEE_UNDERFLOW_FLAG IEEE_DENORMAL
Note: The following floating-point exceptions are signalling: IEEE_UNDERFLOW_FLAG IEEE_DENORMAL
Note: The following floating-point exceptions are signalling: IEEE_UNDERFLOW_FLAG IEEE_DENORMAL
Note: The following floating-point exceptions are signalling: IEEE_UNDERFLOW_FLAG IEEE_DENORMAL
Note: The following floating-point exceptions are signalling: IEEE_UNDERFLOW_FLAG IEEE_DENORMAL
Note: The following floating-point exceptions are signalling: IEEE_UNDERFLOW_FLAG IEEE_DENORMAL
Note: The following floating-point exceptions are signalling: IEEE_UNDERFLOW_FLAG IEEE_DENORMAL
Note: The following floating-point exceptions are signalling: IEEE_UNDERFLOW_FLAG IEEE_DENORMAL
Note: The following floating-point exceptions are signalling: IEEE_UNDERFLOW_FLAG IEEE_DENORMAL
Note: The following floating-point exceptions are signalling: IEEE_UNDERFLOW_FLAG IEEE_DENORMAL
Note: The following floating-point exceptions are signalling: IEEE_UNDERFLOW_FLAG IEEE_DENORMAL
Note: The following floating-point exceptions are signalling: IEEE_UNDERFLOW_FLAG IEEE_DENORMAL
Note: The following floating-point exceptions are signalling: IEEE_UNDERFLOW_FLAG IEEE_DENORMAL
Note: The following floating-point exceptions are signalling: IEEE_UNDERFLOW_FLAG IEEE_DENORMAL
Note: The following floating-point exceptions are signalling: IEEE_INVALID_FLAG IEEE_UNDERFLOW_FLAG IEEE_DENORMAL
Note: The following floating-point exceptions are signalling: IEEE_UNDERFLOW_FLAG IEEE_DENORMAL
Note: The following floating-point exceptions are signalling: IEEE_UNDERFLOW_FLAG IEEE_DENORMAL
Note: The following floating-point exceptions are signalling: IEEE_UNDERFLOW_FLAG IEEE_DENORMAL
Note: The following floating-point exceptions are signalling: IEEE_UNDERFLOW_FLAG IEEE_DENORMAL
Note: The following floating-point exceptions are signalling: IEEE_UNDERFLOW_FLAG IEEE_DENORMAL
Note: The following floating-point exceptions are signalling: IEEE_UNDERFLOW_FLAG IEEE_DENORMAL
Note: The following floating-point exceptions are signalling: IEEE_UNDERFLOW_FLAG IEEE_DENORMAL
Note: The following floating-point exceptions are signalling: IEEE_UNDERFLOW_FLAG IEEE_DENORMAL
Note: The following floating-point exceptions are signalling: IEEE_UNDERFLOW_FLAG IEEE_DENORMAL
Note: The following floating-point exceptions are signalling: IEEE_UNDERFLOW_FLAG IEEE_DENORMAL
Note: The following floating-point exceptions are signalling: IEEE_UNDERFLOW_FLAG IEEE_DENORMAL
Note: The following floating-point exceptions are signalling: IEEE_UNDERFLOW_FLAG IEEE_DENORMAL
Note: The following floating-point exceptions are signalling: IEEE_UNDERFLOW_FLAG IEEE_DENORMAL
Note: The following floating-point exceptions are signalling: IEEE_UNDERFLOW_FLAG IEEE_DENORMAL
Note: The following floating-point exceptions are signalling: IEEE_UNDERFLOW_FLAG IEEE_DENORMAL
Note: The following floating-point exceptions are signalling: IEEE_UNDERFLOW_FLAG IEEE_DENORMAL
Note: The following floating-point exceptions are signalling: IEEE_UNDERFLOW_FLAG IEEE_DENORMAL
Note: The following floating-point exceptions are signalling: IEEE_UNDERFLOW_FLAG IEEE_DENORMAL
Note: The following floating-point exceptions are signalling: IEEE_UNDERFLOW_FLAG IEEE_DENORMAL
Note: The following floating-point exceptions are signalling: IEEE_UNDERFLOW_FLAG IEEE_DENORMAL
Note: The following floating-point exceptions are signalling: IEEE_UNDERFLOW_FLAG IEEE_DENORMAL
Note: The following floating-point exceptions are signalling: IEEE_UNDERFLOW_FLAG IEEE_DENORMAL
Note: The following floating-point exceptions are signalling: IEEE_UNDERFLOW_FLAG IEEE_DENORMAL
Note: The following floating-point exceptions are signalling: IEEE_UNDERFLOW_FLAG IEEE_DENORMAL
Note: The following floating-point exceptions are signalling: IEEE_UNDERFLOW_FLAG IEEE_DENORMAL
Note: The following floating-point exceptions are signalling: IEEE_UNDERFLOW_FLAG IEEE_DENORMAL
Note: The following floating-point exceptions are signalling: IEEE_UNDERFLOW_FLAG IEEE_DENORMAL
Note: The following floating-point exceptions are signalling: IEEE_UNDERFLOW_FLAG IEEE_DENORMAL
Note: The following floating-point exceptions are signalling: IEEE_UNDERFLOW_FLAG IEEE_DENORMAL
Note: The following floating-point exceptions are signalling: IEEE_UNDERFLOW_FLAG IEEE_DENORMAL
Note: The following floating-point exceptions are signalling: IEEE_UNDERFLOW_FLAG IEEE_DENORMAL
Note: The following floating-point exceptions are signalling: IEEE_UNDERFLOW_FLAG IEEE_DENORMAL
Note: The following floating-point exceptions are signalling: IEEE_UNDERFLOW_FLAG IEEE_DENORMAL
Note: The following floating-point exceptions are signalling: IEEE_UNDERFLOW_FLAG IEEE_DENORMAL
Note: The following floating-point exceptions are signalling: IEEE_UNDERFLOW_FLAG IEEE_DENORMAL
Note: The following floating-point exceptions are signalling: IEEE_UNDERFLOW_FLAG IEEE_DENORMAL
Note: The following floating-point exceptions are signalling: IEEE_UNDERFLOW_FLAG IEEE_DENORMAL
Note: The following floating-point exceptions are signalling: IEEE_UNDERFLOW_FLAG IEEE_DENORMAL
Note: The following floating-point exceptions are signalling: IEEE_UNDERFLOW_FLAG IEEE_DENORMAL
Note: The following floating-point exceptions are signalling: IEEE_UNDERFLOW_FLAG IEEE_DENORMAL
Note: The following floating-point exceptions are signalling: IEEE_UNDERFLOW_FLAG IEEE_DENORMAL
Note: The following floating-point exceptions are signalling: IEEE_UNDERFLOW_FLAG IEEE_DENORMAL
Note: The following floating-point exceptions are signalling: IEEE_UNDERFLOW_FLAG IEEE_DENORMAL
Note: The following floating-point exceptions are signalling: IEEE_UNDERFLOW_FLAG IEEE_DENORMAL
Note: The following floating-point exceptions are signalling: IEEE_UNDERFLOW_FLAG IEEE_DENORMAL
Note: The following floating-point exceptions are signalling: IEEE_UNDERFLOW_FLAG IEEE_DENORMAL
Note: The following floating-point exceptions are signalling: IEEE_UNDERFLOW_FLAG IEEE_DENORMAL
Note: The following floating-point exceptions are signalling: IEEE_UNDERFLOW_FLAG IEEE_DENORMAL
Note: The following floating-point exceptions are signalling: IEEE_UNDERFLOW_FLAG IEEE_DENORMAL
Note: The following floating-point exceptions are signalling: IEEE_UNDERFLOW_FLAG IEEE_DENORMAL
Note: The following floating-point exceptions are signalling: IEEE_UNDERFLOW_FLAG IEEE_DENORMAL
Note: The following floating-point exceptions are signalling: IEEE_UNDERFLOW_FLAG IEEE_DENORMAL
Note: The following floating-point exceptions are signalling: IEEE_UNDERFLOW_FLAG IEEE_DENORMAL
Note: The following floating-point exceptions are signalling: IEEE_UNDERFLOW_FLAG IEEE_DENORMAL
Note: The following floating-point exceptions are signalling: IEEE_UNDERFLOW_FLAG IEEE_DENORMAL
Note: The following floating-point exceptions are signalling: IEEE_UNDERFLOW_FLAG IEEE_DENORMAL
Note: The following floating-point exceptions are signalling: IEEE_UNDERFLOW_FLAG IEEE_DENORMAL
Note: The following floating-point exceptions are signalling: IEEE_UNDERFLOW_FLAG IEEE_DENORMAL
Note: The following floating-point exceptions are signalling: IEEE_UNDERFLOW_FLAG IEEE_DENORMAL
Note: The following floating-point exceptions are signalling: IEEE_UNDERFLOW_FLAG IEEE_DENORMAL
Note: The following floating-point exceptions are signalling: IEEE_UNDERFLOW_FLAG IEEE_DENORMAL
Note: The following floating-point exceptions are signalling: IEEE_UNDERFLOW_FLAG IEEE_DENORMAL
Note: The following floating-point exceptions are signalling: IEEE_UNDERFLOW_FLAG IEEE_DENORMAL
Note: The following floating-point exceptions are signalling: IEEE_UNDERFLOW_FLAG IEEE_DENORMAL
Note: The following floating-point exceptions are signalling: IEEE_UNDERFLOW_FLAG IEEE_DENORMAL
Note: The following floating-point exceptions are signalling: IEEE_UNDERFLOW_FLAG IEEE_DENORMAL
Note: The following floating-point exceptions are signalling: IEEE_UNDERFLOW_FLAG IEEE_DENORMAL
Note: The following floating-point exceptions are signalling: IEEE_UNDERFLOW_FLAG IEEE_DENORMAL
Note: The following floating-point exceptions are signalling: IEEE_UNDERFLOW_FLAG IEEE_DENORMAL
Note: The following floating-point exceptions are signalling: IEEE_UNDERFLOW_FLAG IEEE_DENORMAL
Note: The following floating-point exceptions are signalling: IEEE_UNDERFLOW_FLAG IEEE_DENORMAL
Note: The following floating-point exceptions are signalling: IEEE_UNDERFLOW_FLAG IEEE_DENORMAL
Note: The following floating-point exceptions are signalling: IEEE_UNDERFLOW_FLAG IEEE_DENORMAL
Note: The following floating-point exceptions are signalling: IEEE_UNDERFLOW_FLAG IEEE_DENORMAL
Note: The following floating-point exceptions are signalling: IEEE_UNDERFLOW_FLAG IEEE_DENORMAL
Note: The following floating-point exceptions are signalling: IEEE_UNDERFLOW_FLAG IEEE_DENORMAL
Note: The following floating-point exceptions are signalling: IEEE_UNDERFLOW_FLAG IEEE_DENORMAL
Note: The following floating-point exceptions are signalling: IEEE_UNDERFLOW_FLAG IEEE_DENORMAL
Note: The following floating-point exceptions are signalling: IEEE_UNDERFLOW_FLAG IEEE_DENORMAL
Note: The following floating-point exceptions are signalling: IEEE_UNDERFLOW_FLAG IEEE_DENORMAL
Note: The following floating-point exceptions are signalling: IEEE_UNDERFLOW_FLAG IEEE_DENORMAL
end_date Tue Nov  1 21:37:56 GMT 2022
 
TEMPORARY          SAVED (in /mnt/lustre/a2fs-work2/work/e05/e05/bcamino/quantum_computing/test_model/optgeom)
fort.34            graphene_3v_B.gui 1492     Nov 1 21:37
fort.33            graphene_3v_B.xyz 27157    Nov 1 21:37
fort.9             graphene_3v_B.f9  1546848  Nov 1 21:37
fort.98            graphene_3v_B.f98 4025823  Nov 1 21:37
SCFOUT.LOG         graphene_3v_B.SCFLOG516485   Nov 1 21:37
OPTINFO.DAT        graphene_3v_B.OPTINFO11906031 Nov 1 21:37
HESSOPT.DAT        graphene_3v_B.HESSOPT37485    Nov 1 21:37
opta001            opta002            
Disk usage:<du -m>
488	/mnt/lustre/a2fs-work2/work/e05/e05/bcamino/quantum_computing/test_model/optgeom/tmp_graphene_3v_B_
</du -m>
Filesystem                                          1K-blocks          Used     Available Use% Mounted on
10.253.102.2@o2ib1:10.253.102.3@o2ib1:/cls01097 3582178503216 1746839849616 1799116237336  50% /mnt/lustre/a2fs-work2
10.253.102.2@o2ib1:10.253.102.3@o2ib1:/cls01097 3582178503216 1746839849616 1799116237336  50% /mnt/lustre/a2fs-work2
