date:                Tue Nov  1 20:57:44 GMT 2022
hostname:            nid005097
system:              Linux nid005097 4.12.14-197.78_9.1.64-cray_shasta_c #1 SMP Wed Aug 25 14:56:40 UTC 2021 (4e2a900) x86_64 x86_64 x86_64 GNU/Linux
user:                bcamino
input:               /mnt/lustre/a2fs-work2/work/e05/e05/bcamino/quantum_computing/test_model/optgeom/graphene_2v_C.d12
output:              /mnt/lustre/a2fs-work2/work/e05/e05/bcamino/quantum_computing/test_model/optgeom/graphene_2v_C.out
executable script:   /work/e05/e05/bcamino/runCRYSTAL/Pcry_slurm
executable:          Pcrystal
Command:             srun --hint=nomultithread --distribution=block:block Pcrystal
Slurm JobID:         
temporary directory: /mnt/lustre/a2fs-work2/work/e05/e05/bcamino/quantum_computing/test_model/optgeom/tmp_graphene_2v_C_      
input data /mnt/lustre/a2fs-work2/work/e05/e05/bcamino/quantum_computing/test_model/optgeom/graphene_2v_C.d12
Final
EXTERNAL
SYMMREMO
OPTGEOM
ATOMONLY
MAXTRADIUS
0.2
TRUSTRADIUS
0.25
MAXCYCLE
500
END
END
6 8
0 0 6 2.0 1.0
  13575.349682      0.00022245814352
  2035.2333680      0.00172327382520
  463.22562359      0.00892557153140
  131.20019598      0.03572798450200
  42.853015891      0.11076259931000
  15.584185766      0.24295627626000
0 0 2 2.0 1.0
  6.2067138508      0.41440263448000
  2.5764896527      0.23744968655000
0 0 1 0.0 1.0
  0.4941102000      1.00000000000000
0 0 1 0.0 1.0
  0.1644071000      1.00000000000000
0 2 4 2.0 1.0
  34.697232244      0.00533336578050
  7.9582622826      0.03586410909200
  2.3780826883      0.14215873329000
  0.8143320818      0.34270471845000
0 2 1 0.0 1.0
  0.5662417100      1.00000000000000
0 2 1 0.0 1.0
  0.1973545000      1.00000000000000
0 3 1 0.0 1.0
  0.5791584200      1.00000000000000
99 0
ENDBS
DFT
PBE  
ENDDFT
TOLINTEG
8 8 8 8 16
SCFDIR
SHRINK
8 16  
MAXCYCLE
200
TOLDEE
9 
ENDSCF
input data /mnt/lustre/a2fs-work2/work/e05/e05/bcamino/quantum_computing/test_model/optgeom/graphene_2v_C.gui
         128 PROCESSORS WORKING

         
 *******************************************************************************
 *                                                                             *
 *                               CRYSTAL17                                     *
 *                      public : 1.0.2 - March 1st, 2018 STFC/Archer2 build    *
 *                       HTTP://WWW.CRYSTAL.UNITO.IT                           *
 *                                                                             *
 *                              MAIN AUTHORS                                   *
 *                                                                             *
 *  R. DOVESI(1,11), V.R. SAUNDERS(2), C. ROETTI(1,11), R. ORLANDO(1,11),      *
 *  C.M. ZICOVICH-WILSON(1,3), F. PASCALE(4), B. CIVALLERI(1,11),              *
 *  K. DOLL(5), N.M. HARRISON(2,6), I.J. BUSH(7), Ph. D'ARCO(8),               *
 *  M. LLUNELL(9), M. CAUSA'(10), Y. NOEL(8), L. MASCHIO(1,11), A. ERBA(1,11)  *
 *  M. RE'RAT(14), S. CASASSA(1,11)                                            *
 *                                                                             *
 *        CONTRIBUTIONS TO THE CODE HAVE ALSO BEEN GIVEN BY                    *
 *                                                                             *
 *  M. FERRABONE(1,11), M. DE LA PIERRE(1,11), M. FERRERO(1,11),               *
 *  J. BAIMA(1,11), E. ALBANESE(1,11), M.F. PEINTINGER(12), R. BAST(13),       *
 *  B. KIRTMAN(15), V. LACIVITA(1,11), R. DEMICHELIS(1,16)                     *
 *  G. BRANDEBURG(17), S. SALUSTRO(1,11), G. SANSONE(1,11)                     *
 *  M.T. RUGGIERO(18)                                                          *
 *                                                                             *
 * (1) THEORETICAL CHEMISTRY GROUP - UNIVERSITA' DI TORINO - TORINO (ITALY)    *
 * (2) COMPUTATIONAL SCIENCE & ENGINEERING DEPARTMENT - STFC DARESBURY (UK)    *
 * (3) UNIVERSIDAD AUTONOMA DEL ESTADO DE MORELOS - CUERNAVACA (MEXICO)        *
 * (4) UNIVERSITE' DE LORRAINE - NANCY (FRANCE)                                *
 * (5) UNIVERSITAET STUTTGART- STUTTGART (GERMANY)                             *
 * (6) IMPERIAL COLLEGE - LONDON (UK)                                          *
 * (7) OXFORD E-RESEARCH CENTRE - OXFORD (UK)                                  *
 * (8) UPMC - SORBONNE UNIVERSITES - PARIS (FRANCE)                            *
 * (9) UNIVERSIDAD DE BARCELONA - BARCELONA (SPAIN)                            *
 *(10) UNIVERSITA' DI NAPOLI "FEDERICO II" - NAPOLI (ITALY)                    *
 *(11) NIS - NANOSTRUCTURED INTERFACES AND SURFACES - TORINO (ITALY)           *
 *(12) MPI FUER CHEMISCHE ENERGIEKONVERSION - MUELHEIM AN DER RUHR (GERMANY)   *
 *(13) UNIVERSITY OF TROMSO - TROMSO (NORWAY)                                  *
 *(14) UNIVERSITE' DE PAU ET DES PAYS DE L'ADOUR - PAU (FRANCE)                *
 *(15) UNIVERSITY OF CALIFORNIA SANTA BARBARA - SANTA BARBARA (USA)            *
 *(16) CURTIN UNIVERSITY - PERTH (AUSTRALIA)                                   *
 *(17) UNIVERSITY COLLEGE LONDON - LONDON (UK)                                 *
 *(18) CAMBRIDGE UNIVERSITY - CAMBRIDGE (UK)                                   *
 *                                                                             *
 *******************************************************************************
 EEEEEEEEEE STARTING  DATE 01 11 2022 TIME 20:57:47.4
 Final                                                                           

 GEOMETRY INPUT FROM EXTERNAL FILE (FORTRAN UNIT 34)
 3D - CRYSTAL 

 *******************************************************************************
 LATTICE PARAMETERS  (ANGSTROMS AND DEGREES) - PRIMITIVE CELL
       A          B          C        ALPHA      BETA     GAMMA        VOLUME
    7.40317    7.40317    8.68504    90.00000  90.00000 120.00000    412.228566
 INFORMATION **** CHKGRP **** SPGR WITH NO INVERSION

 NUMBER OF IRREDUCIBLE ATOMS IN THE CELL:   16

 CARTESIAN COORDINATES (ANGSTROM) - IRREDUCIBLE ATOMS AND SYMMETRY RELATED

 AT.IRR.  AT  AT.N.          X                   Y                   Z
     1     1     6    1.233862070683E+00  7.123705986520E-01  2.605511400000E+00
     2     2     6    2.467724141366E+00  2.849482394607E+00  2.605511400000E+00
     3     3     6    3.701586212049E+00  4.986594190562E+00  2.605511400000E+00
     4     4     6    3.701586212049E+00  7.123705986520E-01  2.605511400000E+00
     5     5     6    4.935448282733E+00  2.849482394607E+00  2.605511400000E+00
     6     6     6    3.701586212049E+00 -3.561852993259E+00  2.605511400000E+00
     7     7     6    6.169310353416E+00  7.123705986520E-01  2.605511400000E+00
     8     8     6    1.233862070683E+00 -7.123705986520E-01  2.605511400000E+00
     9     9     6    2.467724141366E+00  1.424741197304E+00  2.605511400000E+00
    10    10     6    3.701586212049E+00  3.561852993259E+00  2.605511400000E+00
    11    11     6    2.467724141366E+00 -2.849482394607E+00  2.605511400000E+00
    12    12     6    3.701586212049E+00 -7.123705986520E-01  2.605511400000E+00
    13    13     6    4.935448282733E+00  1.424741197304E+00  2.605511400000E+00
    14    14     6    3.701586212049E+00 -4.986594190562E+00  2.605511400000E+00
    15    15     6    4.935448282733E+00 -2.849482394607E+00  2.605511400000E+00
    16    16     6    6.169310353416E+00 -7.123705986520E-01  2.605511400000E+00

 SPACE  GROUP  N.                     :    1
 NUMBER OF SYMMETRY OPERATORS         :    1
 *******************************************************************************
 LATTICE PARAMETERS (ANGSTROMS AND DEGREES) - BOHR = 0.5291772083 ANGSTROM
 PRIMITIVE CELL - CENTRING CODE 1/0 VOLUME=   412.228566 - DENSITY  0.773 g/cm^3
         A              B              C           ALPHA      BETA       GAMMA 
     7.40317242     7.40317242     8.68503800    90.000000  90.000000 120.000000
 *******************************************************************************
 ATOMS IN THE ASYMMETRIC UNIT   16 - ATOMS IN THE UNIT CELL:   16
     ATOM                 X/A                 Y/B                 Z/C    
 *******************************************************************************
      1 T   6 C     1.111111111111E-01  2.222222222222E-01  3.000000000000E-01
      2 T   6 C     1.111111111111E-01 -4.444444444445E-01  3.000000000000E-01
      3 T   6 C     1.111111111111E-01 -1.111111111111E-01  3.000000000000E-01
      4 T   6 C     4.444444444444E-01 -4.444444444444E-01  3.000000000000E-01
      5 T   6 C     4.444444444446E-01 -1.111111111110E-01  3.000000000000E-01
      6 T   6 C    -2.222222222222E-01  2.222222222222E-01  3.000000000000E-01
      7 T   6 C    -2.222222222221E-01 -1.111111111110E-01  3.000000000000E-01
      8 T   6 C     2.222222222222E-01  1.111111111111E-01  3.000000000000E-01
      9 T   6 C     2.222222222222E-01  4.444444444445E-01  3.000000000000E-01
     10 T   6 C     2.222222222222E-01 -2.222222222222E-01  3.000000000000E-01
     11 T   6 C    -4.444444444445E-01  1.111111111111E-01  3.000000000000E-01
     12 T   6 C    -4.444444444444E-01  4.444444444444E-01  3.000000000000E-01
     13 T   6 C    -4.444444444443E-01 -2.222222222221E-01  3.000000000000E-01
     14 T   6 C    -1.111111111111E-01  1.111111111111E-01  3.000000000000E-01
     15 T   6 C    -1.111111111110E-01  4.444444444446E-01  3.000000000000E-01
     16 T   6 C    -1.111111111110E-01 -2.222222222221E-01  3.000000000000E-01

 T = ATOM BELONGING TO THE ASYMMETRIC UNIT
 *******************************************************************************
 * GEOMETRY EDITING - INPUT COORDINATES ARE GIVEN IN ANGSTROM         
 *******************************************************************************

 USE OF SYMMETRY WILL BE SUBSEQUENTLY SUSPENDED
 INFORMATION **** NEW DEFAULT **** FINALRUN 4 FOR GEOMETRY OPTIMIZATIONS
 INFORMATION **** NEW DEFAULT **** OPTGEOM OPTIMIZES BOTH ATOMIC COORDINATES AND CELL PARAMETERS
 INFORMATION **** NEW DEFAULT **** TOL. ON ATOMIC DISP TO REDEFINE REF. GEOMETRY: 0.8 Angs
 INFORMATION **** NEW DEFAULT **** N POINTS TO REDEFINE REF. GEOMETRY: N OF OPT DEGS OF FREEDOM
 INFORMATION **** NEW DEFAULT **** TOL. ON ENERGY TO REDEFINE REF. GEOMETRY: 10**-3*(5*N. ATOMS)
 INFORMATION **** ATOMONLY **** ONLY ATOMIC COORDINATES ARE OPTIMIZED
 INFORMATION **** MAXTRADIUS **** MAX ALLOWED TRUST RADIUS  2.000000E-01
 INFORMATION **** TRUSTRADIUS ****  INITIAL VALUE FOR TRUST RADIUS MODIFIED  2.500000E-01
 INFORMATION **** MAXCYCLE ****   MAXIMUM NUMBER OF OPTIMIZATION CYCLES         500

 IMPORTANT INFORMATION:
 THE COORDINATE SYSTEM ADOPTED IN THE OPTIMIZATION IS NOT IN
 GENERAL HOMOGENEOUS UNITS. FOR THIS REASON THE GRADIENT AND 
 HESSIAN MATRIX IN TERMS OF THIS SYSTEM ARE GIVEN WITHOUT
 UNITS. FOR MORE DETAILS SEE THE MANUAL.

 *******************************************************************************
 ATOMIC POSITIONS OPTIMIZATION CONTROL

 INITIAL TRUST RADIUS         0.25000 MAXIMUM TRUST RADIUS               0.20000
 MAXIMUM GRADIENT COMPONENT   0.00045 MAXIMUM DISPLACEMENT COMPONENT     0.00180
 R.M.S. OF GRADIENT COMPONENT 0.00030 R.M.S. OF DISPLACEMENT COMPONENTS  0.00120
 THRESHOLD ON ENERGY CHANGE 0.100E-06 EXTRAPOLATING POLYNOMIAL ORDER           2
 MAXIMUM ALLOWED NUMBER OF STEPS  500 SORTING OF ENERGY POINTS:               NO
 ANALYTICAL  GRADIENT                 HESSIAN UPDATING                      BFGS
 STEP SIZE NUMERICAL GRADIENT 0.00100
 INITIAL HESSIAN MATRIX: SCHLEGEL MODEL 2
 *******************************************************************************


 GCALCO - MAX INDICES DIRECT LATTICE VECTOR    16    16    12
 NO.OF VECTORS CREATED 6999 STARS  379 RMAX   166.99060 BOHR

 GEOMETRY FOR WAVE FUNCTION - DIMENSIONALITY OF THE SYSTEM    3
 (NON PERIODIC DIRECTION: LATTICE PARAMETER FORMALLY SET TO 500)
 *******************************************************************************
 LATTICE PARAMETERS (ANGSTROMS AND DEGREES) - BOHR = 0.5291772083 ANGSTROM
 PRIMITIVE CELL - CENTRING CODE 1/0 VOLUME=   412.228566 - DENSITY  0.773 g/cm^3
         A              B              C           ALPHA      BETA       GAMMA 
     7.40317242     7.40317242     8.68503800    90.000000  90.000000 120.000000
 *******************************************************************************
 ATOMS IN THE ASYMMETRIC UNIT   16 - ATOMS IN THE UNIT CELL:   16
     ATOM                 X/A                 Y/B                 Z/C    
 *******************************************************************************
      1 T   6 C     1.111111111111E-01  2.222222222222E-01  3.000000000000E-01
      2 T   6 C     1.111111111111E-01 -4.444444444445E-01  3.000000000000E-01
      3 T   6 C     1.111111111111E-01 -1.111111111111E-01  3.000000000000E-01
      4 T   6 C     4.444444444444E-01 -4.444444444444E-01  3.000000000000E-01
      5 T   6 C     4.444444444446E-01 -1.111111111110E-01  3.000000000000E-01
      6 T   6 C    -2.222222222222E-01  2.222222222222E-01  3.000000000000E-01
      7 T   6 C    -2.222222222221E-01 -1.111111111110E-01  3.000000000000E-01
      8 T   6 C     2.222222222222E-01  1.111111111111E-01  3.000000000000E-01
      9 T   6 C     2.222222222222E-01  4.444444444445E-01  3.000000000000E-01
     10 T   6 C     2.222222222222E-01 -2.222222222222E-01  3.000000000000E-01
     11 T   6 C    -4.444444444445E-01  1.111111111111E-01  3.000000000000E-01
     12 T   6 C    -4.444444444444E-01  4.444444444444E-01  3.000000000000E-01
     13 T   6 C    -4.444444444443E-01 -2.222222222221E-01  3.000000000000E-01
     14 T   6 C    -1.111111111111E-01  1.111111111111E-01  3.000000000000E-01
     15 T   6 C    -1.111111111110E-01  4.444444444446E-01  3.000000000000E-01
     16 T   6 C    -1.111111111110E-01 -2.222222222221E-01  3.000000000000E-01

 T = ATOM BELONGING TO THE ASYMMETRIC UNIT

 ****    1 SYMMOPS - TRANSLATORS IN FRACTIONAL UNITS
 **** MATRICES AND TRANSLATORS IN THE CRYSTALLOGRAPHIC REFERENCE FRAME
   V INV                    ROTATION MATRICES                   TRANSLATORS
   1   1  1.00  0.00  0.00  0.00  1.00  0.00  0.00  0.00  1.00  0.00  0.00  0.00

 DIRECT LATTICE VECTORS CARTESIAN COMPONENTS (ANGSTROM)
          X                    Y                    Z
   0.370158621205E+01  -0.641133538787E+01   0.000000000000E+00
   0.370158621205E+01   0.641133538787E+01   0.000000000000E+00
   0.000000000000E+00   0.000000000000E+00   0.868503800000E+01


 CARTESIAN COORDINATES - PRIMITIVE CELL
 *******************************************************************************
 *      ATOM          X(ANGSTROM)         Y(ANGSTROM)         Z(ANGSTROM)
 *******************************************************************************
    1     6 C     1.233862070683E+00  7.123705986520E-01  2.605511400000E+00
    2     6 C     2.467724141366E+00  2.849482394607E+00  2.605511400000E+00
    3     6 C     3.701586212049E+00  4.986594190562E+00  2.605511400000E+00
    4     6 C     3.701586212049E+00  7.123705986520E-01  2.605511400000E+00
    5     6 C     4.935448282733E+00  2.849482394607E+00  2.605511400000E+00
    6     6 C     3.701586212049E+00 -3.561852993259E+00  2.605511400000E+00
    7     6 C     6.169310353416E+00  7.123705986520E-01  2.605511400000E+00
    8     6 C     1.233862070683E+00 -7.123705986520E-01  2.605511400000E+00
    9     6 C     2.467724141366E+00  1.424741197304E+00  2.605511400000E+00
   10     6 C     3.701586212049E+00  3.561852993259E+00  2.605511400000E+00
   11     6 C     2.467724141366E+00 -2.849482394607E+00  2.605511400000E+00
   12     6 C     3.701586212049E+00 -7.123705986520E-01  2.605511400000E+00
   13     6 C     4.935448282733E+00  1.424741197304E+00  2.605511400000E+00
   14     6 C     3.701586212049E+00 -4.986594190562E+00  2.605511400000E+00
   15     6 C     4.935448282733E+00 -2.849482394607E+00  2.605511400000E+00
   16     6 C     6.169310353416E+00 -7.123705986520E-01  2.605511400000E+00

 *******************************************************************************
 LOCAL ATOMIC FUNCTIONS BASIS SET
 *******************************************************************************
   ATOM   X(AU)   Y(AU)   Z(AU)  N. TYPE  EXPONENT  S COEF   P COEF   D/F/G COEF
 *******************************************************************************
   1 C    2.332   1.346   4.924
                                  1 S  
                                         1.358E+04 2.225E-04 0.000E+00 0.000E+00
                                         2.035E+03 1.723E-03 0.000E+00 0.000E+00
                                         4.632E+02 8.926E-03 0.000E+00 0.000E+00
                                         1.312E+02 3.573E-02 0.000E+00 0.000E+00
                                         4.285E+01 1.108E-01 0.000E+00 0.000E+00
                                         1.558E+01 2.430E-01 0.000E+00 0.000E+00
                                  2 S  
                                         6.207E+00 4.144E-01 0.000E+00 0.000E+00
                                         2.576E+00 2.374E-01 0.000E+00 0.000E+00
                                  3 S  
                                         4.941E-01 1.000E+00 0.000E+00 0.000E+00
                                  4 S  
                                         1.644E-01 1.000E+00 0.000E+00 0.000E+00
                           5-     7 P  
                                         3.470E+01 0.000E+00 5.333E-03 0.000E+00
                                         7.958E+00 0.000E+00 3.586E-02 0.000E+00
                                         2.378E+00 0.000E+00 1.422E-01 0.000E+00
                                         8.143E-01 0.000E+00 3.427E-01 0.000E+00
                           8-    10 P  
                                         5.662E-01 0.000E+00 1.000E+00 0.000E+00
                          11-    13 P  
                                         1.974E-01 0.000E+00 1.000E+00 0.000E+00
                          14-    18 D  
                                         5.792E-01 0.000E+00 0.000E+00 1.000E+00
   2 C    4.663   5.385   4.924
   3 C    6.995   9.423   4.924
   4 C    6.995   1.346   4.924
   5 C    9.327   5.385   4.924
   6 C    6.995  -6.731   4.924
   7 C   11.658   1.346   4.924
   8 C    2.332  -1.346   4.924
   9 C    4.663   2.692   4.924
  10 C    6.995   6.731   4.924
  11 C    4.663  -5.385   4.924
  12 C    6.995  -1.346   4.924
  13 C    9.327   2.692   4.924
  14 C    6.995  -9.423   4.924
  15 C    9.327  -5.385   4.924
  16 C   11.658  -1.346   4.924
 INFORMATION **** SET_MPP **** PCRYSTAL CALCULATION
 INFORMATION **** READM2 **** NEW DEFAULT: FOCK/KS MATRIX MIXING SET TO 30 %
 INFORMATION **** READM2 **** NEW DEFAULT: FULL DIRECT SCF MODE
 INFORMATION **** READM2 **** NEW DEFAULT: COULOMB BIPOLAR BUFFER SET TO 32 Mb
 INFORMATION **** READM2 **** NEW DEFAULT: EXCHANGE BIPOLAR BUFFER SET TO 32 Mb

 *******************************************************************************
 NEW DEFAULT: DFT INTEGRATION GRID INCREASED TO XLGRID
 NEW DEFAULT: DIIS ACCELERATOR ACTIVE
 USE KEYWORD NODIIS TO TURN IT OFF
 *******************************************************************************

 INFORMATION **** TOLINTEG **** COULOMB AND EXCHANGE SERIES TOLERANCES MODIFIED
 INFORMATION **** READM2 **** FULL DIRECT SCF (MONO AND BIEL INT) SELECTED
 INFORMATION **** MAXCYCLE **** MAX NUMBER OF SCF CYCLES SET TO         200
 INFORMATION **** TOLDEE **** SCF TOL ON TOTAL ENERGY SET TO           9
 *******************************************************************************
 N. OF ATOMS PER CELL        16  COULOMB OVERLAP TOL         (T1) 10**   -8
 NUMBER OF SHELLS           128  COULOMB PENETRATION TOL     (T2) 10**   -8
 NUMBER OF AO               288  EXCHANGE OVERLAP TOL        (T3) 10**   20
 N. OF ELECTRONS PER CELL    96  EXCHANGE PSEUDO OVP (F(G))  (T4) 10**   20
 CORE ELECTRONS PER CELL     32  EXCHANGE PSEUDO OVP (P(G))  (T5) 10**   20
 N. OF SYMMETRY OPERATORS     1  POLE ORDER IN MONO ZONE                  4
 *******************************************************************************
 TYPE OF CALCULATION :  RESTRICTED CLOSED SHELL
 KOHN-SHAM HAMILTONIAN

 (EXCHANGE)[CORRELATION] FUNCTIONAL:(PERDEW-BURKE-ERNZERHOF)[PERDEW-BURKE-ERNZERHOF]


 CAPPA:IS1  8;IS2  8;IS3  8; K PTS MONK NET 260; SYMMOPS:K SPACE   2;G SPACE   1

 *******************************************************************************
 MAX NUMBER OF SCF CYCLES     200  CONVERGENCE ON DELTAP        10**-19
 WEIGHT OF F(I) IN F(I+1)      30% CONVERGENCE ON ENERGY        10**- 9
 SHRINK. FACT.(MONKH.)    8  8  8  NUMBER OF K POINTS IN THE IBZ    260
 SHRINKING FACTOR(GILAT NET)   16  NUMBER OF K POINTS(GILAT NET)   2052
 *******************************************************************************
 *** K POINTS COORDINATES (OBLIQUE COORDINATES IN UNITS OF IS =  8)
   1-R(  0  0  0)   2-C(  1  0  0)   3-C(  2  0  0)   4-C(  3  0  0)
   5-R(  4  0  0)   6-C(  0  1  0)   7-C(  1  1  0)   8-C(  2  1  0)
   9-C(  3  1  0)  10-C(  4  1  0)  11-C(  5  1  0)  12-C(  6  1  0)
  13-C(  7  1  0)  14-C(  0  2  0)  15-C(  1  2  0)  16-C(  2  2  0)
  17-C(  3  2  0)  18-C(  4  2  0)  19-C(  5  2  0)  20-C(  6  2  0)
  21-C(  7  2  0)  22-C(  0  3  0)  23-C(  1  3  0)  24-C(  2  3  0)
  25-C(  3  3  0)  26-C(  4  3  0)  27-C(  5  3  0)  28-C(  6  3  0)
  29-C(  7  3  0)  30-R(  0  4  0)  31-C(  1  4  0)  32-C(  2  4  0)
  33-C(  3  4  0)  34-R(  4  4  0)  35-C(  0  0  1)  36-C(  1  0  1)
  37-C(  2  0  1)  38-C(  3  0  1)  39-C(  4  0  1)  40-C(  5  0  1)
  41-C(  6  0  1)  42-C(  7  0  1)  43-C(  0  1  1)  44-C(  1  1  1)
  45-C(  2  1  1)  46-C(  3  1  1)  47-C(  4  1  1)  48-C(  5  1  1)
  49-C(  6  1  1)  50-C(  7  1  1)  51-C(  0  2  1)  52-C(  1  2  1)
  53-C(  2  2  1)  54-C(  3  2  1)  55-C(  4  2  1)  56-C(  5  2  1)
  57-C(  6  2  1)  58-C(  7  2  1)  59-C(  0  3  1)  60-C(  1  3  1)
  61-C(  2  3  1)  62-C(  3  3  1)  63-C(  4  3  1)  64-C(  5  3  1)
  65-C(  6  3  1)  66-C(  7  3  1)  67-C(  0  4  1)  68-C(  1  4  1)
  69-C(  2  4  1)  70-C(  3  4  1)  71-C(  4  4  1)  72-C(  5  4  1)
  73-C(  6  4  1)  74-C(  7  4  1)  75-C(  0  5  1)  76-C(  1  5  1)
  77-C(  2  5  1)  78-C(  3  5  1)  79-C(  4  5  1)  80-C(  5  5  1)
  81-C(  6  5  1)  82-C(  7  5  1)  83-C(  0  6  1)  84-C(  1  6  1)
  85-C(  2  6  1)  86-C(  3  6  1)  87-C(  4  6  1)  88-C(  5  6  1)
  89-C(  6  6  1)  90-C(  7  6  1)  91-C(  0  7  1)  92-C(  1  7  1)
  93-C(  2  7  1)  94-C(  3  7  1)  95-C(  4  7  1)  96-C(  5  7  1)
  97-C(  6  7  1)  98-C(  7  7  1)  99-C(  0  0  2) 100-C(  1  0  2)
 101-C(  2  0  2) 102-C(  3  0  2) 103-C(  4  0  2) 104-C(  5  0  2)
 105-C(  6  0  2) 106-C(  7  0  2) 107-C(  0  1  2) 108-C(  1  1  2)
 109-C(  2  1  2) 110-C(  3  1  2) 111-C(  4  1  2) 112-C(  5  1  2)
 113-C(  6  1  2) 114-C(  7  1  2) 115-C(  0  2  2) 116-C(  1  2  2)
 117-C(  2  2  2) 118-C(  3  2  2) 119-C(  4  2  2) 120-C(  5  2  2)
 121-C(  6  2  2) 122-C(  7  2  2) 123-C(  0  3  2) 124-C(  1  3  2)
 125-C(  2  3  2) 126-C(  3  3  2) 127-C(  4  3  2) 128-C(  5  3  2)
 129-C(  6  3  2) 130-C(  7  3  2) 131-C(  0  4  2) 132-C(  1  4  2)
 133-C(  2  4  2) 134-C(  3  4  2) 135-C(  4  4  2) 136-C(  5  4  2)
 137-C(  6  4  2) 138-C(  7  4  2) 139-C(  0  5  2) 140-C(  1  5  2)
 141-C(  2  5  2) 142-C(  3  5  2) 143-C(  4  5  2) 144-C(  5  5  2)
 145-C(  6  5  2) 146-C(  7  5  2) 147-C(  0  6  2) 148-C(  1  6  2)
 149-C(  2  6  2) 150-C(  3  6  2) 151-C(  4  6  2) 152-C(  5  6  2)
 153-C(  6  6  2) 154-C(  7  6  2) 155-C(  0  7  2) 156-C(  1  7  2)
 157-C(  2  7  2) 158-C(  3  7  2) 159-C(  4  7  2) 160-C(  5  7  2)
 161-C(  6  7  2) 162-C(  7  7  2) 163-C(  0  0  3) 164-C(  1  0  3)
 165-C(  2  0  3) 166-C(  3  0  3) 167-C(  4  0  3) 168-C(  5  0  3)
 169-C(  6  0  3) 170-C(  7  0  3) 171-C(  0  1  3) 172-C(  1  1  3)
 173-C(  2  1  3) 174-C(  3  1  3) 175-C(  4  1  3) 176-C(  5  1  3)
 177-C(  6  1  3) 178-C(  7  1  3) 179-C(  0  2  3) 180-C(  1  2  3)
 181-C(  2  2  3) 182-C(  3  2  3) 183-C(  4  2  3) 184-C(  5  2  3)
 185-C(  6  2  3) 186-C(  7  2  3) 187-C(  0  3  3) 188-C(  1  3  3)
 189-C(  2  3  3) 190-C(  3  3  3) 191-C(  4  3  3) 192-C(  5  3  3)
 193-C(  6  3  3) 194-C(  7  3  3) 195-C(  0  4  3) 196-C(  1  4  3)
 197-C(  2  4  3) 198-C(  3  4  3) 199-C(  4  4  3) 200-C(  5  4  3)
 201-C(  6  4  3) 202-C(  7  4  3) 203-C(  0  5  3) 204-C(  1  5  3)
 205-C(  2  5  3) 206-C(  3  5  3) 207-C(  4  5  3) 208-C(  5  5  3)
 209-C(  6  5  3) 210-C(  7  5  3) 211-C(  0  6  3) 212-C(  1  6  3)
 213-C(  2  6  3) 214-C(  3  6  3) 215-C(  4  6  3) 216-C(  5  6  3)
 217-C(  6  6  3) 218-C(  7  6  3) 219-C(  0  7  3) 220-C(  1  7  3)
 221-C(  2  7  3) 222-C(  3  7  3) 223-C(  4  7  3) 224-C(  5  7  3)
 225-C(  6  7  3) 226-C(  7  7  3) 227-R(  0  0  4) 228-C(  1  0  4)
 229-C(  2  0  4) 230-C(  3  0  4) 231-R(  4  0  4) 232-C(  0  1  4)
 233-C(  1  1  4) 234-C(  2  1  4) 235-C(  3  1  4) 236-C(  4  1  4)
 237-C(  5  1  4) 238-C(  6  1  4) 239-C(  7  1  4) 240-C(  0  2  4)
 241-C(  1  2  4) 242-C(  2  2  4) 243-C(  3  2  4) 244-C(  4  2  4)
 245-C(  5  2  4) 246-C(  6  2  4) 247-C(  7  2  4) 248-C(  0  3  4)
 249-C(  1  3  4) 250-C(  2  3  4) 251-C(  3  3  4) 252-C(  4  3  4)
 253-C(  5  3  4) 254-C(  6  3  4) 255-C(  7  3  4) 256-R(  0  4  4)
 257-C(  1  4  4) 258-C(  2  4  4) 259-C(  3  4  4) 260-R(  4  4  4)

 DIRECT LATTICE VECTORS COMPON. (A.U.)     RECIP. LATTICE VECTORS COMPON. (A.U.) 
        X            Y            Z              X            Y            Z
    6.9949842  -12.1156680    0.0000000      0.4491208   -0.2593000    0.0000000
    6.9949842   12.1156680    0.0000000      0.4491208    0.2593000   -0.0000000
    0.0000000    0.0000000   16.4123433     -0.0000000    0.0000000    0.3828329

 DISK SPACE FOR EIGENVECTORS (FTN 10)    42467328 REALS

 SYMMETRY ADAPTION OF THE BLOCH FUNCTIONS DISABLED
 TTTTTTTTTTTTTTTTTTTTTTTTTTTTTT gordsh1     TELAPSE        2.58 TCPU        1.79

 MATRIX SIZE: P(G)  125958, F(G)   63171, P(G) IRR   63475, F(G) IRR   63475
 MAX G-VECTOR INDEX FOR 1- AND 2-ELECTRON INTEGRALS  27

 TTTTTTTTTTTTTTTTTTTTTTTTTTTTTT INPUT       TELAPSE        2.58 TCPU        1.79

 NEIGHBORS OF THE NON-EQUIVALENT ATOMS

 N = NUMBER OF NEIGHBORS AT DISTANCE R
    ATOM  N     R/ANG      R/AU   NEIGHBORS (ATOM LABELS AND CELL INDICES)
   1 C    3     1.4247     2.6924    8 C    0 0 0    9 C    0 0 0   14 C   -1 0 0
   1 C    5     2.4677     4.6633    2 C    0 0 0    3 C    0-1 0    4 C    0 0 0
                                     6 C   -1 0 0    7 C   -1-1 0
   1 C    3     2.8495     5.3847   12 C    0 0 0   15 C   -1 0 0   16 C   -1-1 0
   1 C    6     3.7695     7.1233   10 C    0 0 0   10 C    0-1 0   11 C    0 0 0
                                    11 C   -1 0 0   13 C    0 0 0   13 C   -1-1 0
   1 C    3     4.2742     8.0771    5 C    0 0 0    5 C   -1-1 0    5 C    0-1 0
   1 C    5     4.9354     9.3266    2 C    0-1 0    3 C    0 0 0    4 C   -1-1 0
                                     6 C    0 0 0    7 C    0 0 0

   2 C    3     1.4247     2.6924    9 C    0 0 0   10 C    0 0 0   15 C   -1 0 0
   2 C    5     2.4677     4.6633    1 C    0 0 0    3 C    0 0 0    4 C    0 0 0
                                     5 C    0 0 0    6 C   -1 0 0
   2 C    3     2.8495     5.3847   13 C    0 0 0   14 C   -1 0 0   16 C   -1 0 0
   2 C    6     3.7695     7.1233    8 C    0 0 0    8 C    0 1 0   11 C   -1 0 0
                                    11 C    0 1 0   12 C    0 0 0   12 C   -1 0 0
   2 C    3     4.2742     8.0771    7 C    0 0 0    7 C   -1-1 0    7 C   -1 0 0
   2 C    5     4.9354     9.3266    1 C    0 1 0    3 C    0-1 0    4 C   -1 0 0
                                     5 C   -1-1 0    6 C    0 1 0

   3 C    3     1.4247     2.6924    8 C    0 1 0   10 C    0 0 0   16 C   -1 0 0
   3 C    4     2.4677     4.6633    1 C    0 1 0    2 C    0 0 0    5 C    0 0 0
                                     7 C   -1 0 0
   3 C    3     2.8495     5.3847   11 C    0 1 0   14 C   -1 1 0   15 C   -1 0 0
   3 C    6     3.7695     7.1233    9 C    0 0 0    9 C    0 1 0   12 C   -1 0 0
                                    12 C    0 1 0   13 C    0 0 0   13 C   -1 0 0
   3 C    6     4.2742     8.0771    4 C    0 0 0    4 C   -1 0 0    4 C    0 1 0
                                     6 C   -1 0 0    6 C    0 1 0    6 C   -1 1 0
   3 C    4     4.9354     9.3266    1 C    0 0 0    2 C    0 1 0    5 C   -1 0 0
                                     7 C    0 0 0

   4 C    3     1.4247     2.6924    9 C    0 0 0   12 C    0 0 0   13 C    0 0 0
   4 C    4     2.4677     4.6633    1 C    0 0 0    2 C    0 0 0    5 C    0 0 0
                                     7 C    0 0 0
   4 C    3     2.8495     5.3847    8 C    0 0 0   10 C    0 0 0   16 C    0 0 0
   4 C    6     3.7695     7.1233   11 C    0 0 0   11 C    0 1 0   14 C   -1 0 0
                                    14 C    0 1 0   15 C    0 0 0   15 C   -1 0 0
   4 C    6     4.2742     8.0771    3 C    0 0 0    3 C    1 0 0    3 C    0-1 0
                                     6 C    0 0 0    6 C   -1 0 0    6 C    0 1 0
   4 C    4     4.9354     9.3266    1 C    1 1 0    2 C    1 0 0    5 C    0-1 0
                                     7 C   -1-1 0

   5 C    3     1.4247     2.6924   10 C    0 0 0   11 C    0 1 0   13 C    0 0 0
   5 C    5     2.4677     4.6633    2 C    0 0 0    3 C    0 0 0    4 C    0 0 0
                                     6 C    0 1 0    7 C    0 0 0
   5 C    3     2.8495     5.3847    8 C    0 1 0    9 C    0 0 0   14 C    0 1 0
   5 C    6     3.7695     7.1233   12 C    0 0 0   12 C    0 1 0   15 C   -1 0 0
                                    15 C    0 1 0   16 C    0 0 0   16 C   -1 0 0
   5 C    3     4.2742     8.0771    1 C    0 0 0    1 C    1 1 0    1 C    0 1 0
   5 C    5     4.9354     9.3266    2 C    1 1 0    3 C    1 0 0    4 C    0 1 0
                                     6 C   -1 0 0    7 C   -1 0 0

   6 C    3     1.4247     2.6924   11 C    0 0 0   14 C    0 0 0   15 C    0 0 0
   6 C    4     2.4677     4.6633    1 C    1 0 0    2 C    1 0 0    5 C    0-1 0
                                     7 C    0-1 0
   6 C    3     2.8495     5.3847    9 C    1 0 0   12 C    0 0 0   13 C    0-1 0
   6 C    6     3.7695     7.1233    8 C    0 0 0    8 C    1 0 0   10 C    1 0 0
                                    10 C    0-1 0   16 C    0 0 0   16 C    0-1 0
   6 C    6     4.2742     8.0771    3 C    1 0 0    3 C    0-1 0    3 C    1-1 0
                                     4 C    0 0 0    4 C    1 0 0    4 C    0-1 0
   6 C    4     4.9354     9.3266    1 C    0 0 0    2 C    0-1 0    5 C    1 0 0
                                     7 C    0 0 0

   7 C    3     1.4247     2.6924   13 C    0 0 0   14 C    0 1 0   16 C    0 0 0
   7 C    5     2.4677     4.6633    1 C    1 1 0    3 C    1 0 0    4 C    0 0 0
                                     5 C    0 0 0    6 C    0 1 0
   7 C    3     2.8495     5.3847    8 C    1 1 0   11 C    0 1 0   12 C    0 0 0
   7 C    6     3.7695     7.1233    9 C    0 0 0    9 C    1 1 0   10 C    0 0 0
                                    10 C    1 0 0   15 C    0 0 0   15 C    0 1 0
   7 C    3     4.2742     8.0771    2 C    0 0 0    2 C    1 1 0    2 C    1 0 0
   7 C    5     4.9354     9.3266    1 C    0 0 0    3 C    0 0 0    4 C    1 1 0
                                     5 C    1 0 0    6 C    0 0 0

   8 C    2     1.4247     2.6924    1 C    0 0 0    3 C    0-1 0
   8 C    6     2.4677     4.6633    9 C    0 0 0   10 C    0-1 0   11 C    0 0 0
                                    12 C    0 0 0   14 C   -1 0 0   16 C   -1-1 0
   8 C    3     2.8495     5.3847    4 C    0 0 0    5 C    0-1 0    7 C   -1-1 0
   8 C    4     3.7695     7.1233    2 C    0 0 0    2 C    0-1 0    6 C    0 0 0
                                     6 C   -1 0 0
   8 C    6     4.2742     8.0771   13 C    0 0 0   13 C   -1-1 0   13 C    0-1 0
                                    15 C    0 0 0   15 C   -1-1 0   15 C   -1 0 0
   8 C    6     4.9354     9.3266    9 C    0-1 0   10 C    0 0 0   11 C   -1 0 0
                                    12 C   -1-1 0   14 C    0 0 0   16 C    0 0 0

   9 C    3     1.4247     2.6924    1 C    0 0 0    2 C    0 0 0    4 C    0 0 0
   9 C    6     2.4677     4.6633    8 C    0 0 0   10 C    0 0 0   12 C    0 0 0
                                    13 C    0 0 0   14 C   -1 0 0   15 C   -1 0 0
   9 C    2     2.8495     5.3847    5 C    0 0 0    6 C   -1 0 0
   9 C    4     3.7695     7.1233    3 C    0 0 0    3 C    0-1 0    7 C    0 0 0
                                     7 C   -1-1 0
   9 C    6     4.2742     8.0771   11 C    0 0 0   11 C   -1 0 0   11 C    0 1 0
                                    16 C    0 0 0   16 C   -1-1 0   16 C   -1 0 0
   9 C    6     4.9354     9.3266    8 C    0 1 0   10 C    0-1 0   12 C   -1 0 0
                                    13 C   -1-1 0   14 C    0 1 0   15 C    0 0 0

  10 C    3     1.4247     2.6924    2 C    0 0 0    3 C    0 0 0    5 C    0 0 0
  10 C    6     2.4677     4.6633    8 C    0 1 0    9 C    0 0 0   11 C    0 1 0
                                    13 C    0 0 0   15 C   -1 0 0   16 C   -1 0 0
  10 C    1     2.8495     5.3847    4 C    0 0 0
  10 C    6     3.7695     7.1233    1 C    0 0 0    1 C    0 1 0    6 C   -1 0 0
                                     6 C    0 1 0    7 C    0 0 0    7 C   -1 0 0
  10 C    6     4.2742     8.0771   12 C    0 0 0   12 C   -1 0 0   12 C    0 1 0
                                    14 C   -1 0 0   14 C    0 1 0   14 C   -1 1 0
  10 C    6     4.9354     9.3266    8 C    0 0 0    9 C    0 1 0   11 C   -1 0 0
                                    13 C   -1 0 0   15 C    0 1 0   16 C    0 0 0

  11 C    2     1.4247     2.6924    5 C    0-1 0    6 C    0 0 0
  11 C    6     2.4677     4.6633    8 C    0 0 0   10 C    0-1 0   12 C    0 0 0
                                    13 C    0-1 0   14 C    0 0 0   15 C    0 0 0
  11 C    2     2.8495     5.3847    3 C    0-1 0    7 C    0-1 0
  11 C    6     3.7695     7.1233    1 C    0 0 0    1 C    1 0 0    2 C    1 0 0
                                     2 C    0-1 0    4 C    0 0 0    4 C    0-1 0
  11 C    6     4.2742     8.0771    9 C    0 0 0    9 C    1 0 0    9 C    0-1 0
                                    16 C    0 0 0   16 C   -1-1 0   16 C    0-1 0
  11 C    6     4.9354     9.3266    8 C    1 0 0   10 C    1 0 0   12 C    0-1 0
                                    13 C    0 0 0   14 C   -1 0 0   15 C   -1-1 0

  12 C    1     1.4247     2.6924    4 C    0 0 0
  12 C    6     2.4677     4.6633    8 C    0 0 0    9 C    0 0 0   11 C    0 0 0
                                    13 C    0 0 0   15 C    0 0 0   16 C    0 0 0
  12 C    3     2.8495     5.3847    1 C    0 0 0    6 C    0 0 0    7 C    0 0 0
  12 C    6     3.7695     7.1233    2 C    0 0 0    2 C    1 0 0    3 C    1 0 0
                                     3 C    0-1 0    5 C    0 0 0    5 C    0-1 0
  12 C    6     4.2742     8.0771   10 C    0 0 0   10 C    1 0 0   10 C    0-1 0
                                    14 C    0 0 0   14 C   -1 0 0   14 C    0 1 0
  12 C    6     4.9354     9.3266    8 C    1 1 0    9 C    1 0 0   11 C    0 1 0
                                    13 C    0-1 0   15 C   -1 0 0   16 C   -1-1 0

  13 C    3     1.4247     2.6924    4 C    0 0 0    5 C    0 0 0    7 C    0 0 0
  13 C    6     2.4677     4.6633    9 C    0 0 0   10 C    0 0 0   11 C    0 1 0
                                    12 C    0 0 0   14 C    0 1 0   16 C    0 0 0
  13 C    2     2.8495     5.3847    2 C    0 0 0    6 C    0 1 0
  13 C    4     3.7695     7.1233    1 C    0 0 0    1 C    1 1 0    3 C    0 0 0
                                     3 C    1 0 0
  13 C    6     4.2742     8.0771    8 C    0 0 0    8 C    1 1 0    8 C    0 1 0
                                    15 C    0 0 0   15 C   -1 0 0   15 C    0 1 0
  13 C    6     4.9354     9.3266    9 C    1 1 0   10 C    1 0 0   11 C    0 0 0
                                    12 C    0 1 0   14 C   -1 0 0   16 C   -1 0 0

  14 C    3     1.4247     2.6924    1 C    1 0 0    6 C    0 0 0    7 C    0-1 0
  14 C    6     2.4677     4.6633    8 C    1 0 0    9 C    1 0 0   11 C    0 0 0
                                    13 C    0-1 0   15 C    0 0 0   16 C    0-1 0
  14 C    3     2.8495     5.3847    2 C    1 0 0    3 C    1-1 0    5 C    0-1 0
  14 C    2     3.7695     7.1233    4 C    1 0 0    4 C    0-1 0
  14 C    6     4.2742     8.0771   10 C    1 0 0   10 C    0-1 0   10 C    1-1 0
                                    12 C    0 0 0   12 C    1 0 0   12 C    0-1 0
  14 C    6     4.9354     9.3266    8 C    0 0 0    9 C    0-1 0   11 C    1 0 0
                                    13 C    1 0 0   15 C    0-1 0   16 C    0 0 0

  15 C    2     1.4247     2.6924    2 C    1 0 0    6 C    0 0 0
  15 C    6     2.4677     4.6633    9 C    1 0 0   10 C    1 0 0   11 C    0 0 0
                                    12 C    0 0 0   14 C    0 0 0   16 C    0 0 0
  15 C    2     2.8495     5.3847    1 C    1 0 0    3 C    1 0 0
  15 C    6     3.7695     7.1233    4 C    0 0 0    4 C    1 0 0    5 C    1 0 0
                                     5 C    0-1 0    7 C    0 0 0    7 C    0-1 0
  15 C    6     4.2742     8.0771    8 C    0 0 0    8 C    1 1 0    8 C    1 0 0
                                    13 C    0 0 0   13 C    1 0 0   13 C    0-1 0
  15 C    6     4.9354     9.3266    9 C    0 0 0   10 C    0-1 0   11 C    1 1 0
                                    12 C    1 0 0   14 C    0 1 0   16 C    0-1 0

  16 C    2     1.4247     2.6924    3 C    1 0 0    7 C    0 0 0
  16 C    6     2.4677     4.6633    8 C    1 1 0   10 C    1 0 0   12 C    0 0 0
                                    13 C    0 0 0   14 C    0 1 0   15 C    0 0 0
  16 C    3     2.8495     5.3847    1 C    1 1 0    2 C    1 0 0    4 C    0 0 0
  16 C    4     3.7695     7.1233    5 C    0 0 0    5 C    1 0 0    6 C    0 0 0
                                     6 C    0 1 0
  16 C    6     4.2742     8.0771    9 C    0 0 0    9 C    1 1 0    9 C    1 0 0
                                    11 C    0 0 0   11 C    1 1 0   11 C    0 1 0
  16 C    6     4.9354     9.3266    8 C    0 0 0   10 C    0 0 0   12 C    1 1 0
                                    13 C    1 0 0   14 C    0 0 0   15 C    0 1 0


 SYMMETRY ALLOWED INTERNAL DEGREE(S) OF FREEDOM:  45
 TTTTTTTTTTTTTTTTTTTTTTTTTTTTTT SYMM        TELAPSE        2.59 TCPU        1.80
 TTTTTTTTTTTTTTTTTTTTTTTTTTTTTT INT_SCREEN  TELAPSE        2.59 TCPU        1.80

 *******************************************************************************
 *                             OPTIMIZATION STARTS                             *
 *******************************************************************************
 RECLASIFICATION OF INDICES FOR INTEGRAL CALC ACCORDING TO DIFFERENT CRITERIA:
           FIXDELTE                  FIXDELTX              FIXDELTN
          0.10000000               0.80000000                 45
 *******************************************************************************

 *******************************************************************************
 COORDINATE OPTIMIZATION - POINT    1
 INFORMATION **** EXCBUF **** EXCH. BIPO BUFFER: WORDS USED =           0

 DFT PARAMETERS

     ATOM       ELECTRONS   NET CHARGE   R(ANGSTROM)
   1   6  C       6.0000      0.0000     0.77000000

 SIZE OF GRID=     531420
 TTTTTTTTTTTTTTTTTTTTTTTTTTTTTT MAKE_GRID2  TELAPSE        2.98 TCPU        2.18
 BECKE WEIGHT FUNCTION
 RADSAFE =     2.00
 TOLERANCES - DENSITY:10**- 6; POTENTIAL:10**- 9; GRID WGT:10**-14

 RADIAL INTEGRATION  - INTERVALS (POINTS,UPPER LIMIT):            1( 75,  4.0*R)

 ANGULAR INTEGRATION - INTERVALS (ACCURACY LEVEL [N. POINTS] UPPER LIMIT):
  1(  4[  86]   0.2)  2(  8[ 194]   0.5)  3( 12[ 350]   0.9)  4( 16[ 974]   3.5)
  5( 12[ 350]9999.0)
 TTTTTTTTTTTTTTTTTTTTTTTTTTTTTT INT_CALC    TELAPSE        3.00 TCPU        2.21

 *******************************************************************************
 Final                                                                           
 CRYSTAL - SCF - TYPE OF CALCULATION :  RESTRICTED CLOSED SHELL
 *******************************************************************************

 CAPPA:IS1  8;IS2  8;IS3  8; K PTS MONK NET 260; SYMMOPS:K SPACE   2;G SPACE   1

 TTTTTTTTTTTTTTTTTTTTTTTTTTTTTT SDIK        TELAPSE        3.07 TCPU        2.27

 AAAAAAAAAAAAAAAAAAAAAAAAAAAAAAAAAAAAAAAAAAAAAAAAAAAAAAAAAAAAAAAAAAAAAAAAAAAAAAA
         ATOMIC WAVEFUNCTION(S)


 NUCLEAR CHARGE  6.0  SYMMETRY SPECIES            S    P
 N. ELECTRONS    6.0  NUMBER OF PRIMITIVE GTOS   10    6
                      NUMBER OF CONTRACTED GTOS   4    3
                      NUMBER OF CLOSED SHELLS     2    0
                      OPEN SHELL OCCUPATION       0    2

  ZNUC SCFIT  TOTAL HF ENERGY   KINETIC ENERGY   VIRIAL THEOREM ACCURACY
   6.0  10   -3.768111494E+01  3.771190961E+01 -1.999183423E+00  3.4E-06

 AAAAAAAAAAAAAAAAAAAAAAAAAAAAAAAAAAAAAAAAAAAAAAAAAAAAAAAAAAAAAAAAAAAAAAAAAAAAAAA

 CHARGE NORMALIZATION FACTOR   1.00000000
 TOTAL ATOMIC CHARGES:
   6.0000000   6.0000000   6.0000000   6.0000000   6.0000000   6.0000000
   6.0000000   6.0000000   6.0000000   6.0000000   6.0000000   6.0000000
   6.0000000   6.0000000   6.0000000   6.0000000
 TTTTTTTTTTTTTTTTTTTTTTTTTTTTTT MOQGAD      TELAPSE        3.08 TCPU        2.28
 TTTTTTTTTTTTTTTTTTTTTTTTTTTTTT SHELLXN     TELAPSE        3.74 TCPU        2.94
 TTTTTTTTTTTTTTTTTTTTTTTTTTTTTT MONMO3      TELAPSE        3.99 TCPU        3.20
 NUMERICALLY INTEGRATED DENSITY     95.9998083674
 TTTTTTTTTTTTTTTTTTTTTTTTTTTTTT NUMDFT      TELAPSE        4.17 TCPU        3.37
 CYC   0 ETOT(AU) -6.125919687028E+02 DETOT -6.13E+02 tst  0.00E+00 PX  1.00E+00
 TTTTTTTTTTTTTTTTTTTTTTTTTTTTTT DIIS        TELAPSE        4.18 TCPU        3.38
 TTTTTTTTTTTTTTTTTTTTTTTTTTTTTT FDIK        TELAPSE        4.37 TCPU        3.57
 POSSIBLY CONDUCTING STATE - EFERMI(AU) -2.2693365E-01 (RES. CHARGE  2.38E-10;IT. 12)
 TTTTTTTTTTTTTTTTTTTTTTTTTTTTTT PDIG        TELAPSE        4.48 TCPU        3.68
 CHARGE NORMALIZATION FACTOR   1.00000000
 TOTAL ATOMIC CHARGES:
   6.0549194   6.0666961   6.1248768   6.0909721   6.0666947   6.0528272
   6.0549192   6.0525754   5.9511556   6.1497287   5.8392630   5.6454638
   5.9511567   6.0069147   5.8392611   6.0525754
 TTTTTTTTTTTTTTTTTTTTTTTTTTTTTT MOQGAD      TELAPSE        4.48 TCPU        3.68
 TTTTTTTTTTTTTTTTTTTTTTTTTTTTTT SHELLXN     TELAPSE        5.24 TCPU        4.44
 TTTTTTTTTTTTTTTTTTTTTTTTTTTTTT MONMO3      TELAPSE        5.50 TCPU        4.69
 NUMERICALLY INTEGRATED DENSITY     95.9998585154
 TTTTTTTTTTTTTTTTTTTTTTTTTTTTTT NUMDFT      TELAPSE        5.92 TCPU        5.12
 CYC   1 ETOT(AU) -6.085679040570E+02 DETOT  4.02E+00 tst  0.00E+00 PX  1.00E+00
 TTTTTTTTTTTTTTTTTTTTTTTTTTTTTT DIIS        TELAPSE        5.93 TCPU        5.13
 DIIS TEST: 0.92564E+00 AT SCF   CYCLE   1 - MIX   30 %
 TTTTTTTTTTTTTTTTTTTTTTTTTTTTTT FDIK        TELAPSE        6.12 TCPU        5.31
 POSSIBLY CONDUCTING STATE - EFERMI(AU) -1.8825169E-01 (RES. CHARGE  4.05E-12;IT. 14)
 TTTTTTTTTTTTTTTTTTTTTTTTTTTTTT PDIG        TELAPSE        6.22 TCPU        5.42
 CHARGE NORMALIZATION FACTOR   1.00000000
 TOTAL ATOMIC CHARGES:
   5.8028879   5.8129514   5.7030220   5.7928063   5.8129500   5.8332788
   5.8028878   5.7383367   6.0160129   5.4615239   6.4269368   7.7641956
   6.0160140   5.8509253   6.4269342   5.7383364
 TTTTTTTTTTTTTTTTTTTTTTTTTTTTTT MOQGAD      TELAPSE        6.22 TCPU        5.42
 TTTTTTTTTTTTTTTTTTTTTTTTTTTTTT SHELLXN     TELAPSE        6.98 TCPU        6.17
 TTTTTTTTTTTTTTTTTTTTTTTTTTTTTT MONMO3      TELAPSE        7.24 TCPU        6.43
 NUMERICALLY INTEGRATED DENSITY     95.9998303148
 TTTTTTTTTTTTTTTTTTTTTTTTTTTTTT NUMDFT      TELAPSE        7.65 TCPU        6.84
 CYC   2 ETOT(AU) -6.077731897082E+02 DETOT  7.95E-01 tst  2.82E-02 PX  3.12E-01
 TTTTTTTTTTTTTTTTTTTTTTTTTTTTTT DIIS        TELAPSE        7.67 TCPU        6.86
 DIIS TEST: 0.73038E+01 AT SCF   CYCLE   2 - DIIS ACTIVE - HISTORY:     2 CYCLES
 TTTTTTTTTTTTTTTTTTTTTTTTTTTTTT FDIK        TELAPSE        7.88 TCPU        7.06
 POSSIBLY CONDUCTING STATE - EFERMI(AU) -1.4148256E-01 (RES. CHARGE  4.83E-13;IT. 12)
 TTTTTTTTTTTTTTTTTTTTTTTTTTTTTT PDIG        TELAPSE        7.99 TCPU        7.17
 CHARGE NORMALIZATION FACTOR   1.00000000
 TOTAL ATOMIC CHARGES:
   5.8968918   5.9506316   5.9294075   5.8267231   5.9506301   5.8672840
   5.8968917   6.4350920   6.0555208   6.0862529   6.0454042   5.4253181
   6.0555218   6.0979354   6.0454029   6.4350921
 TTTTTTTTTTTTTTTTTTTTTTTTTTTTTT MOQGAD      TELAPSE        7.99 TCPU        7.17
 TTTTTTTTTTTTTTTTTTTTTTTTTTTTTT SHELLXN     TELAPSE        8.75 TCPU        7.94
 TTTTTTTTTTTTTTTTTTTTTTTTTTTTTT MONMO3      TELAPSE        9.02 TCPU        8.21
 NUMERICALLY INTEGRATED DENSITY     95.9998178702
 TTTTTTTTTTTTTTTTTTTTTTTTTTTTTT NUMDFT      TELAPSE        9.42 TCPU        8.61
 CYC   3 ETOT(AU) -6.085649263336E+02 DETOT -7.92E-01 tst  1.52E-01 PX  2.92E-01
 TTTTTTTTTTTTTTTTTTTTTTTTTTTTTT DIIS        TELAPSE        9.44 TCPU        8.63
 DIIS TEST: 0.92511E+00 AT SCF   CYCLE   3 - DIIS ACTIVE - HISTORY:     3 CYCLES
 TTTTTTTTTTTTTTTTTTTTTTTTTTTTTT FDIK        TELAPSE        9.66 TCPU        8.84
 POSSIBLY CONDUCTING STATE - EFERMI(AU) -1.5748465E-01 (RES. CHARGE  2.06E-11;IT. 12)
 TTTTTTTTTTTTTTTTTTTTTTTTTTTTTT PDIG        TELAPSE        9.77 TCPU        8.95
 CHARGE NORMALIZATION FACTOR   1.00000000
 TOTAL ATOMIC CHARGES:
   5.9996435   6.0314846   6.0210737   6.0671897   6.0314832   5.9902698
   5.9996434   5.8152759   6.0729764   6.0132574   5.6905865   6.6790806
   6.0729775   6.0091987   5.6905834   5.8152757
 TTTTTTTTTTTTTTTTTTTTTTTTTTTTTT MOQGAD      TELAPSE        9.77 TCPU        8.95
 TTTTTTTTTTTTTTTTTTTTTTTTTTTTTT SHELLXN     TELAPSE       10.53 TCPU        9.71
 TTTTTTTTTTTTTTTTTTTTTTTTTTTTTT MONMO3      TELAPSE       10.78 TCPU        9.96
 NUMERICALLY INTEGRATED DENSITY     95.9998246716
 TTTTTTTTTTTTTTTTTTTTTTTTTTTTTT NUMDFT      TELAPSE       11.20 TCPU       10.38
 CYC   4 ETOT(AU) -6.085841761265E+02 DETOT -1.92E-02 tst  1.17E-02 PX  2.27E-01
 TTTTTTTTTTTTTTTTTTTTTTTTTTTTTT DIIS        TELAPSE       11.22 TCPU       10.40
 DIIS TEST: 0.81380E+00 AT SCF   CYCLE   4 - DIIS ACTIVE - HISTORY:     4 CYCLES
 TTTTTTTTTTTTTTTTTTTTTTTTTTTTTT FDIK        TELAPSE       11.41 TCPU       10.59
 POSSIBLY CONDUCTING STATE - EFERMI(AU) -1.6694150E-01 (RES. CHARGE  4.14E-12;IT. 20)
 TTTTTTTTTTTTTTTTTTTTTTTTTTTTTT PDIG        TELAPSE       11.52 TCPU       10.70
 CHARGE NORMALIZATION FACTOR   1.00000000
 TOTAL ATOMIC CHARGES:
   5.9825162   6.0075723   6.0223467   5.9571590   6.0075707   6.0333080
   5.9825161   5.9068610   5.9058591   6.0371056   6.3337219   5.6585656
   5.9058602   6.0184563   6.3337204   5.9068611
 TTTTTTTTTTTTTTTTTTTTTTTTTTTTTT MOQGAD      TELAPSE       11.53 TCPU       10.70
 TTTTTTTTTTTTTTTTTTTTTTTTTTTTTT SHELLXN     TELAPSE       12.28 TCPU       11.46
 TTTTTTTTTTTTTTTTTTTTTTTTTTTTTT MONMO3      TELAPSE       12.54 TCPU       11.71
 NUMERICALLY INTEGRATED DENSITY     95.9998306232
 TTTTTTTTTTTTTTTTTTTTTTTTTTTTTT NUMDFT      TELAPSE       12.93 TCPU       12.10
 CYC   5 ETOT(AU) -6.086104719466E+02 DETOT -2.63E-02 tst  6.59E-03 PX  2.45E-01
 TTTTTTTTTTTTTTTTTTTTTTTTTTTTTT DIIS        TELAPSE       12.95 TCPU       12.12
 DIIS TEST: 0.78141E+00 AT SCF   CYCLE   5 - DIIS ACTIVE - HISTORY:     5 CYCLES
 TTTTTTTTTTTTTTTTTTTTTTTTTTTTTT FDIK        TELAPSE       13.16 TCPU       12.33
 POSSIBLY CONDUCTING STATE - EFERMI(AU) -1.7013696E-01 (RES. CHARGE  4.41E-12;IT. 12)
 TTTTTTTTTTTTTTTTTTTTTTTTTTTTTT PDIG        TELAPSE       13.27 TCPU       12.45
 CHARGE NORMALIZATION FACTOR   1.00000000
 TOTAL ATOMIC CHARGES:
   5.9794278   5.9798478   6.0213078   5.9556190   5.9798463   5.9834012
   5.9794277   6.1385591   5.9562605   5.9861959   5.9952112   5.9664951
   5.9562615   5.9883704   5.9952095   6.1385591
 TTTTTTTTTTTTTTTTTTTTTTTTTTTTTT MOQGAD      TELAPSE       13.28 TCPU       12.45
 TTTTTTTTTTTTTTTTTTTTTTTTTTTTTT SHELLXN     TELAPSE       14.03 TCPU       13.20
 TTTTTTTTTTTTTTTTTTTTTTTTTTTTTT MONMO3      TELAPSE       14.29 TCPU       13.46
 NUMERICALLY INTEGRATED DENSITY     95.9998297918
 TTTTTTTTTTTTTTTTTTTTTTTTTTTTTT NUMDFT      TELAPSE       14.59 TCPU       13.75
 CYC   6 ETOT(AU) -6.087013102832E+02 DETOT -9.08E-02 tst  1.69E-03 PX  8.30E-02
 TTTTTTTTTTTTTTTTTTTTTTTTTTTTTT DIIS        TELAPSE       14.61 TCPU       13.77
 DIIS TEST: 0.53926E-01 AT SCF   CYCLE   6 - DIIS ACTIVE - HISTORY:     6 CYCLES
 TTTTTTTTTTTTTTTTTTTTTTTTTTTTTT FDIK        TELAPSE       14.82 TCPU       13.99
 POSSIBLY CONDUCTING STATE - EFERMI(AU) -1.7154988E-01 (RES. CHARGE  1.33E-10;IT. 16)
 TTTTTTTTTTTTTTTTTTTTTTTTTTTTTT PDIG        TELAPSE       14.94 TCPU       14.10
 CHARGE NORMALIZATION FACTOR   1.00000000
 TOTAL ATOMIC CHARGES:
   5.9450636   6.0018624   5.9563446   5.9489687   6.0018611   5.9412346
   5.9450635   6.0125015   6.0524041   6.0962761   6.0219499   5.9448880
   6.0524054   6.0447276   6.0219471   6.0125017
 TTTTTTTTTTTTTTTTTTTTTTTTTTTTTT MOQGAD      TELAPSE       14.94 TCPU       14.10
 TTTTTTTTTTTTTTTTTTTTTTTTTTTTTT SHELLXN     TELAPSE       15.70 TCPU       14.86
 TTTTTTTTTTTTTTTTTTTTTTTTTTTTTT MONMO3      TELAPSE       15.95 TCPU       15.11
 NUMERICALLY INTEGRATED DENSITY     95.9998294151
 TTTTTTTTTTTTTTTTTTTTTTTTTTTTTT NUMDFT      TELAPSE       16.34 TCPU       15.51
 CYC   7 ETOT(AU) -6.087000130035E+02 DETOT  1.30E-03 tst  2.43E-04 PX  3.08E-02
 TTTTTTTTTTTTTTTTTTTTTTTTTTTTTT DIIS        TELAPSE       16.36 TCPU       15.52
 DIIS TEST: 0.71893E-01 AT SCF   CYCLE   7 - DIIS ACTIVE - HISTORY:     7 CYCLES
 TTTTTTTTTTTTTTTTTTTTTTTTTTTTTT FDIK        TELAPSE       16.56 TCPU       15.72
 POSSIBLY CONDUCTING STATE - EFERMI(AU) -1.7168664E-01 (RES. CHARGE  7.67E-11;IT. 10)
 TTTTTTTTTTTTTTTTTTTTTTTTTTTTTT PDIG        TELAPSE       16.68 TCPU       15.84
 CHARGE NORMALIZATION FACTOR   1.00000000
 TOTAL ATOMIC CHARGES:
   5.9705016   5.9904497   6.0045860   5.9617912   5.9904480   5.9751182
   5.9705014   6.0611671   6.0130424   5.9841930   5.9072533   6.1568574
   6.0130426   6.0326287   5.9072534   6.0611662
 TTTTTTTTTTTTTTTTTTTTTTTTTTTTTT MOQGAD      TELAPSE       16.68 TCPU       15.84
 TTTTTTTTTTTTTTTTTTTTTTTTTTTTTT SHELLXN     TELAPSE       17.43 TCPU       16.59
 TTTTTTTTTTTTTTTTTTTTTTTTTTTTTT MONMO3      TELAPSE       17.69 TCPU       16.85
 NUMERICALLY INTEGRATED DENSITY     95.9998291823
 TTTTTTTTTTTTTTTTTTTTTTTTTTTTTT NUMDFT      TELAPSE       17.99 TCPU       17.14
 CYC   8 ETOT(AU) -6.087054933366E+02 DETOT -5.48E-03 tst  3.40E-04 PX  5.63E-02
 TTTTTTTTTTTTTTTTTTTTTTTTTTTTTT DIIS        TELAPSE       18.01 TCPU       17.16
 DIIS TEST: 0.20697E-01 AT SCF   CYCLE   8 - DIIS ACTIVE - HISTORY:     8 CYCLES
 TTTTTTTTTTTTTTTTTTTTTTTTTTTTTT FDIK        TELAPSE       18.22 TCPU       17.37
 POSSIBLY CONDUCTING STATE - EFERMI(AU) -1.7206873E-01 (RES. CHARGE  6.32E-13;IT. 10)
 TTTTTTTTTTTTTTTTTTTTTTTTTTTTTT PDIG        TELAPSE       18.33 TCPU       17.49
 CHARGE NORMALIZATION FACTOR   1.00000000
 TOTAL ATOMIC CHARGES:
   5.9672491   5.9939713   6.0041654   5.9651528   5.9939703   5.9659567
   5.9672492   6.0567660   6.0036742   6.0349096   5.9435636   6.0933174
   6.0036775   6.0060514   5.9435570   6.0567684
 TTTTTTTTTTTTTTTTTTTTTTTTTTTTTT MOQGAD      TELAPSE       18.33 TCPU       17.49
 TTTTTTTTTTTTTTTTTTTTTTTTTTTTTT SHELLXN     TELAPSE       19.09 TCPU       18.24
 TTTTTTTTTTTTTTTTTTTTTTTTTTTTTT MONMO3      TELAPSE       19.34 TCPU       18.50
 NUMERICALLY INTEGRATED DENSITY     95.9998293785
 TTTTTTTTTTTTTTTTTTTTTTTTTTTTTT NUMDFT      TELAPSE       19.77 TCPU       18.92
 CYC   9 ETOT(AU) -6.087079979347E+02 DETOT -2.50E-03 tst  7.20E-05 PX  1.96E-02
 TTTTTTTTTTTTTTTTTTTTTTTTTTTTTT DIIS        TELAPSE       19.79 TCPU       18.95
 DIIS TEST: 0.36366E-02 AT SCF   CYCLE   9 - DIIS ACTIVE - HISTORY:     9 CYCLES
 TTTTTTTTTTTTTTTTTTTTTTTTTTTTTT FDIK        TELAPSE       20.00 TCPU       19.15
 POSSIBLY CONDUCTING STATE - EFERMI(AU) -1.7202508E-01 (RES. CHARGE  2.35E-11;IT. 10)
 TTTTTTTTTTTTTTTTTTTTTTTTTTTTTT PDIG        TELAPSE       20.12 TCPU       19.27
 CHARGE NORMALIZATION FACTOR   1.00000000
 TOTAL ATOMIC CHARGES:
   5.9701843   5.9909510   5.9916019   5.9623786   5.9909481   5.9697696
   5.9701834   6.0579024   6.0090829   6.0019238   5.9770928   6.0515397
   6.0090734   6.0123734   5.9771038   6.0578909
 TTTTTTTTTTTTTTTTTTTTTTTTTTTTTT MOQGAD      TELAPSE       20.12 TCPU       19.27
 TTTTTTTTTTTTTTTTTTTTTTTTTTTTTT SHELLXN     TELAPSE       20.87 TCPU       20.01
 TTTTTTTTTTTTTTTTTTTTTTTTTTTTTT MONMO3      TELAPSE       21.13 TCPU       20.28
 NUMERICALLY INTEGRATED DENSITY     95.9998295506
 TTTTTTTTTTTTTTTTTTTTTTTTTTTTTT NUMDFT      TELAPSE       21.43 TCPU       20.58
 CYC  10 ETOT(AU) -6.087083441199E+02 DETOT -3.46E-04 tst  1.36E-05 PX  1.17E-02
 TTTTTTTTTTTTTTTTTTTTTTTTTTTTTT DIIS        TELAPSE       21.45 TCPU       20.60
 DIIS TEST: 0.11242E-02 AT SCF   CYCLE  10 - DIIS ACTIVE - HISTORY:    10 CYCLES
 TTTTTTTTTTTTTTTTTTTTTTTTTTTTTT FDIK        TELAPSE       21.66 TCPU       20.80
 POSSIBLY CONDUCTING STATE - EFERMI(AU) -1.7223740E-01 (RES. CHARGE  2.63E-13;IT. 10)
 TTTTTTTTTTTTTTTTTTTTTTTTTTTTTT PDIG        TELAPSE       21.78 TCPU       20.91
 CHARGE NORMALIZATION FACTOR   1.00000000
 TOTAL ATOMIC CHARGES:
   5.9654977   5.9901426   5.9944182   5.9553747   5.9901447   5.9679388
   5.9655004   6.0571465   6.0038700   6.0223291   5.9702892   6.0673788
   6.0039017   6.0186258   5.9702586   6.0571832
 TTTTTTTTTTTTTTTTTTTTTTTTTTTTTT MOQGAD      TELAPSE       21.78 TCPU       20.91
 TTTTTTTTTTTTTTTTTTTTTTTTTTTTTT SHELLXN     TELAPSE       22.53 TCPU       21.67
 TTTTTTTTTTTTTTTTTTTTTTTTTTTTTT MONMO3      TELAPSE       22.79 TCPU       21.92
 NUMERICALLY INTEGRATED DENSITY     95.9998295676
 TTTTTTTTTTTTTTTTTTTTTTTTTTTTTT NUMDFT      TELAPSE       23.08 TCPU       22.21
 CYC  11 ETOT(AU) -6.087084658902E+02 DETOT -1.22E-04 tst  3.74E-06 PX  5.29E-03
 TTTTTTTTTTTTTTTTTTTTTTTTTTTTTT DIIS        TELAPSE       23.10 TCPU       22.24
 DIIS TEST: 0.12497E-03 AT SCF   CYCLE  11 - DIIS ACTIVE - HISTORY:    11 CYCLES
 TTTTTTTTTTTTTTTTTTTTTTTTTTTTTT FDIK        TELAPSE       23.32 TCPU       22.45
 POSSIBLY CONDUCTING STATE - EFERMI(AU) -1.7217204E-01 (RES. CHARGE  6.06E-10;IT. 10)
 TTTTTTTTTTTTTTTTTTTTTTTTTTTTTT PDIG        TELAPSE       23.43 TCPU       22.56
 CHARGE NORMALIZATION FACTOR   1.00000000
 TOTAL ATOMIC CHARGES:
   5.9662467   5.9908593   5.9973983   5.9605324   5.9908416   5.9676980
   5.9662307   6.0584003   6.0064694   6.0116596   5.9683152   6.0726794
   6.0063131   6.0097190   5.9684356   6.0582014
 TTTTTTTTTTTTTTTTTTTTTTTTTTTTTT MOQGAD      TELAPSE       23.43 TCPU       22.56
 TTTTTTTTTTTTTTTTTTTTTTTTTTTTTT SHELLXN     TELAPSE       24.19 TCPU       23.31
 TTTTTTTTTTTTTTTTTTTTTTTTTTTTTT MONMO3      TELAPSE       24.44 TCPU       23.57
 NUMERICALLY INTEGRATED DENSITY     95.9998295175
 TTTTTTTTTTTTTTTTTTTTTTTTTTTTTT NUMDFT      TELAPSE       24.74 TCPU       23.87
 CYC  12 ETOT(AU) -6.087084639042E+02 DETOT  1.99E-06 tst  1.63E-06 PX  2.96E-03
 TTTTTTTTTTTTTTTTTTTTTTTTTTTTTT DIIS        TELAPSE       24.76 TCPU       23.89
 DIIS TEST: 0.13275E-03 AT SCF   CYCLE  12 - DIIS ACTIVE - HISTORY:    12 CYCLES
 TTTTTTTTTTTTTTTTTTTTTTTTTTTTTT FDIK        TELAPSE       24.98 TCPU       24.10
 POSSIBLY CONDUCTING STATE - EFERMI(AU) -1.7212133E-01 (RES. CHARGE  3.27E-10;IT. 10)
 TTTTTTTTTTTTTTTTTTTTTTTTTTTTTT PDIG        TELAPSE       25.09 TCPU       24.22
 CHARGE NORMALIZATION FACTOR   1.00000000
 TOTAL ATOMIC CHARGES:
   5.9675730   5.9906099   5.9954706   5.9596524   5.9906654   5.9682788
   5.9676360   6.0569098   6.0037698   6.0176728   5.9693839   6.0684649
   6.0043899   6.0128353   5.9689901   6.0576974
 TTTTTTTTTTTTTTTTTTTTTTTTTTTTTT MOQGAD      TELAPSE       25.09 TCPU       24.22
 TTTTTTTTTTTTTTTTTTTTTTTTTTTTTT SHELLXN     TELAPSE       25.85 TCPU       24.97
 TTTTTTTTTTTTTTTTTTTTTTTTTTTTTT MONMO3      TELAPSE       26.10 TCPU       25.23
 NUMERICALLY INTEGRATED DENSITY     95.9998295269
 TTTTTTTTTTTTTTTTTTTTTTTTTTTTTT NUMDFT      TELAPSE       26.52 TCPU       25.64
 CYC  13 ETOT(AU) -6.087084801097E+02 DETOT -1.62E-05 tst  5.45E-07 PX  1.71E-03
 TTTTTTTTTTTTTTTTTTTTTTTTTTTTTT DIIS        TELAPSE       26.54 TCPU       25.67
 DIIS TEST: 0.47574E-05 AT SCF   CYCLE  13 - DIIS ACTIVE - HISTORY:    13 CYCLES
 TTTTTTTTTTTTTTTTTTTTTTTTTTTTTT FDIK        TELAPSE       26.76 TCPU       25.88
 POSSIBLY CONDUCTING STATE - EFERMI(AU) -1.7213429E-01 (RES. CHARGE  4.38E-11;IT.  8)
 TTTTTTTTTTTTTTTTTTTTTTTTTTTTTT PDIG        TELAPSE       26.87 TCPU       25.99
 CHARGE NORMALIZATION FACTOR   1.00000000
 TOTAL ATOMIC CHARGES:
   5.9668678   5.9909827   5.9963908   5.9590152   5.9907194   5.9683917
   5.9665512   6.0593977   6.0062668   6.0168359   5.9681363   6.0685999
   6.0031857   6.0133980   5.9697993   6.0554615
 TTTTTTTTTTTTTTTTTTTTTTTTTTTTTT MOQGAD      TELAPSE       26.87 TCPU       25.99
 TTTTTTTTTTTTTTTTTTTTTTTTTTTTTT SHELLXN     TELAPSE       27.62 TCPU       26.74
 TTTTTTTTTTTTTTTTTTTTTTTTTTTTTT MONMO3      TELAPSE       27.88 TCPU       27.00
 NUMERICALLY INTEGRATED DENSITY     95.9998295325
 TTTTTTTTTTTTTTTTTTTTTTTTTTTTTT NUMDFT      TELAPSE       28.18 TCPU       27.29
 CYC  14 ETOT(AU) -6.087084775912E+02 DETOT  2.52E-06 tst  1.79E-07 PX  6.89E-04
 TTTTTTTTTTTTTTTTTTTTTTTTTTTTTT DIIS        TELAPSE       28.20 TCPU       27.32
 DIIS TEST: 0.23211E-04 AT SCF   CYCLE  14 - DIIS ACTIVE - HISTORY:    14 CYCLES
 TTTTTTTTTTTTTTTTTTTTTTTTTTTTTT FDIK        TELAPSE       28.42 TCPU       27.53
 POSSIBLY CONDUCTING STATE - EFERMI(AU) -1.7213762E-01 (RES. CHARGE  6.32E-13;IT.  8)
 TTTTTTTTTTTTTTTTTTTTTTTTTTTTTT PDIG        TELAPSE       28.53 TCPU       27.64
 CHARGE NORMALIZATION FACTOR   1.00000000
 TOTAL ATOMIC CHARGES:
   5.9665881   5.9908153   5.9964365   5.9589841   5.9908792   5.9683557
   5.9666931   6.0568188   6.0043100   6.0167744   5.9690818   6.0686113
   6.0053019   6.0134469   5.9687912   6.0581117
 TTTTTTTTTTTTTTTTTTTTTTTTTTTTTT MOQGAD      TELAPSE       28.53 TCPU       27.65
 TTTTTTTTTTTTTTTTTTTTTTTTTTTTTT SHELLXN     TELAPSE       29.29 TCPU       28.40
 TTTTTTTTTTTTTTTTTTTTTTTTTTTTTT MONMO3      TELAPSE       29.54 TCPU       28.65
 NUMERICALLY INTEGRATED DENSITY     95.9998295337
 TTTTTTTTTTTTTTTTTTTTTTTTTTTTTT NUMDFT      TELAPSE       29.96 TCPU       29.07
 CYC  15 ETOT(AU) -6.087084803073E+02 DETOT -2.72E-06 tst  2.18E-07 PX  7.05E-04
 TTTTTTTTTTTTTTTTTTTTTTTTTTTTTT DIIS        TELAPSE       29.98 TCPU       29.10
 DIIS TEST: 0.29207E-05 AT SCF   CYCLE  15 - DIIS ACTIVE - HISTORY:    15 CYCLES
 TTTTTTTTTTTTTTTTTTTTTTTTTTTTTT FDIK        TELAPSE       30.20 TCPU       29.31
 POSSIBLY CONDUCTING STATE - EFERMI(AU) -1.7214549E-01 (RES. CHARGE  1.01E-11;IT.  8)
 TTTTTTTTTTTTTTTTTTTTTTTTTTTTTT PDIG        TELAPSE       30.31 TCPU       29.42
 CHARGE NORMALIZATION FACTOR   1.00000000
 TOTAL ATOMIC CHARGES:
   5.9668505   5.9906960   5.9961013   5.9591497   5.9907532   5.9681652
   5.9668303   6.0576256   6.0047803   6.0170683   5.9694306   6.0683652
   6.0047174   6.0134178   5.9686275   6.0574212
 TTTTTTTTTTTTTTTTTTTTTTTTTTTTTT MOQGAD      TELAPSE       30.31 TCPU       29.42
 TTTTTTTTTTTTTTTTTTTTTTTTTTTTTT SHELLXN     TELAPSE       31.07 TCPU       30.18
 TTTTTTTTTTTTTTTTTTTTTTTTTTTTTT MONMO3      TELAPSE       31.32 TCPU       30.43
 NUMERICALLY INTEGRATED DENSITY     95.9998295359
 TTTTTTTTTTTTTTTTTTTTTTTTTTTTTT NUMDFT      TELAPSE       31.75 TCPU       30.86
 CYC  16 ETOT(AU) -6.087084805817E+02 DETOT -2.74E-07 tst  1.63E-08 PX  1.85E-04
 TTTTTTTTTTTTTTTTTTTTTTTTTTTTTT DIIS        TELAPSE       31.78 TCPU       30.88
 DIIS TEST: 0.74473E-06 AT SCF   CYCLE  16 - DIIS ACTIVE - HISTORY:    16 CYCLES
 TTTTTTTTTTTTTTTTTTTTTTTTTTTTTT FDIK        TELAPSE       31.99 TCPU       31.10
 POSSIBLY CONDUCTING STATE - EFERMI(AU) -1.7214535E-01 (RES. CHARGE  2.13E-12;IT.  6)
 TTTTTTTTTTTTTTTTTTTTTTTTTTTTTT PDIG        TELAPSE       32.10 TCPU       31.21
 CHARGE NORMALIZATION FACTOR   1.00000000
 TOTAL ATOMIC CHARGES:
   5.9668468   5.9907460   5.9960878   5.9591455   5.9907276   5.9681876
   5.9668513   6.0574911   6.0047277   6.0170866   5.9689430   6.0683344
   6.0047318   6.0133939   5.9691569   6.0575421
 TTTTTTTTTTTTTTTTTTTTTTTTTTTTTT MOQGAD      TELAPSE       32.11 TCPU       31.21
 TTTTTTTTTTTTTTTTTTTTTTTTTTTTTT SHELLXN     TELAPSE       32.86 TCPU       31.97
 TTTTTTTTTTTTTTTTTTTTTTTTTTTTTT MONMO3      TELAPSE       33.12 TCPU       32.22
 NUMERICALLY INTEGRATED DENSITY     95.9998295360
 TTTTTTTTTTTTTTTTTTTTTTTTTTTTTT NUMDFT      TELAPSE       33.42 TCPU       32.52
 CYC  17 ETOT(AU) -6.087084806642E+02 DETOT -8.25E-08 tst  9.66E-09 PX  9.44E-05
 TTTTTTTTTTTTTTTTTTTTTTTTTTTTTT DIIS        TELAPSE       33.44 TCPU       32.55
 DIIS TEST: 0.12520E-06 AT SCF   CYCLE  17 - DIIS ACTIVE - HISTORY:    17 CYCLES
 TTTTTTTTTTTTTTTTTTTTTTTTTTTTTT FDIK        TELAPSE       33.66 TCPU       32.76
 POSSIBLY CONDUCTING STATE - EFERMI(AU) -1.7214439E-01 (RES. CHARGE  6.64E-10;IT.  6)
 TTTTTTTTTTTTTTTTTTTTTTTTTTTTTT PDIG        TELAPSE       33.77 TCPU       32.88
 CHARGE NORMALIZATION FACTOR   1.00000000
 TOTAL ATOMIC CHARGES:
   5.9668485   5.9907718   5.9960924   5.9591221   5.9907715   5.9682485
   5.9668485   6.0574969   6.0046894   6.0171048   5.9691001   6.0682747
   6.0046982   6.0133478   5.9690945   6.0574904
 TTTTTTTTTTTTTTTTTTTTTTTTTTTTTT MOQGAD      TELAPSE       33.77 TCPU       32.88
 TTTTTTTTTTTTTTTTTTTTTTTTTTTTTT SHELLXN     TELAPSE       34.54 TCPU       33.63
 TTTTTTTTTTTTTTTTTTTTTTTTTTTTTT MONMO3      TELAPSE       34.79 TCPU       33.89
 NUMERICALLY INTEGRATED DENSITY     95.9998295360
 TTTTTTTTTTTTTTTTTTTTTTTTTTTTTT NUMDFT      TELAPSE       35.21 TCPU       34.31
 CYC  18 ETOT(AU) -6.087084806894E+02 DETOT -2.52E-08 tst  4.82E-10 PX  2.95E-05
 TTTTTTTTTTTTTTTTTTTTTTTTTTTTTT DIIS        TELAPSE       35.24 TCPU       34.33
 DIIS TEST: 0.11099E-07 AT SCF   CYCLE  18 - DIIS ACTIVE - HISTORY:    18 CYCLES
 TTTTTTTTTTTTTTTTTTTTTTTTTTTTTT FDIK        TELAPSE       35.46 TCPU       34.55
 POSSIBLY CONDUCTING STATE - EFERMI(AU) -1.7214409E-01 (RES. CHARGE  2.01E-11;IT.  6)
 TTTTTTTTTTTTTTTTTTTTTTTTTTTTTT PDIG        TELAPSE       35.67 TCPU       34.76
 CHARGE NORMALIZATION FACTOR   1.00000000
 TOTAL ATOMIC CHARGES:
   5.9668486   5.9907589   5.9961068   5.9591247   5.9907555   5.9682274
   5.9668478   6.0574689   6.0046972   6.0171442   5.9691552   6.0681967
   6.0046754   6.0133638   5.9691422   6.0574866
 TTTTTTTTTTTTTTTTTTTTTTTTTTTTTT MOQGAD      TELAPSE       35.67 TCPU       34.76
 TTTTTTTTTTTTTTTTTTTTTTTTTTTTTT SHELLXN     TELAPSE       36.43 TCPU       35.52
 TTTTTTTTTTTTTTTTTTTTTTTTTTTTTT MONMO3      TELAPSE       36.68 TCPU       35.77
 NUMERICALLY INTEGRATED DENSITY     95.9998295362
 TTTTTTTTTTTTTTTTTTTTTTTTTTTTTT NUMDFT      TELAPSE       37.10 TCPU       36.19
 CYC  19 ETOT(AU) -6.087084806889E+02 DETOT  4.55E-10 tst  7.89E-11 PX  2.77E-05
 TTTTTTTTTTTTTTTTTTTTTTTTTTTTTT DIIS        TELAPSE       37.13 TCPU       36.22
 DIIS TEST: 0.19355E-08 AT SCF   CYCLE  19 - DIIS ACTIVE - HISTORY:    19 CYCLES
 TTTTTTTTTTTTTTTTTTTTTTTTTTTTTT FDIK        TELAPSE       37.42 TCPU       36.47
 POSSIBLY CONDUCTING STATE - EFERMI(AU) -1.7214426E-01 (RES. CHARGE  1.68E-12;IT.  6)
 TTTTTTTTTTTTTTTTTTTTTTTTTTTTTT PDIG        TELAPSE       37.53 TCPU       36.58
 CHARGE NORMALIZATION FACTOR   1.00000000
 TOTAL ATOMIC CHARGES:
   5.9668455   5.9907622   5.9960939   5.9591174   5.9907628   5.9682330
   5.9668461   6.0575029   6.0046731   6.0171478   5.9691370   6.0681913
   6.0046981   6.0133568   5.9691472   6.0574848
 TTTTTTTTTTTTTTTTTTTTTTTTTTTTTT MOQGAD      TELAPSE       37.53 TCPU       36.58
 TTTTTTTTTTTTTTTTTTTTTTTTTTTTTT SHELLXN     TELAPSE       38.28 TCPU       37.34
 +++ ENERGIES IN A.U. +++
 ::: EXT EL-POLE                                  -9.0165618387021E+02
 ::: EXT EL-SPHEROPOLE                             6.9689132401999E+00
 ::: BIELET ZONE E-E                               1.3356898276869E+03
 ::: TOTAL E-E                                     4.4100255705690E+02
 ::: TOTAL E-N + N-E                              -1.7126307773214E+03
 ::: TOTAL N-N                                     1.4309327429847E+02
 ::: KINETIC ENERGY                                6.0567444750921E+02
 ::: PSEUDO TOTAL   ENERGY                        -5.2286049845681E+02
 ::: VIRIAL COEFFICIENT                            1.0733818206945E+00
 TTTTTTTTTTTTTTTTTTTTTTTTTTTTTT MONMO3      TELAPSE       38.54 TCPU       37.59
 NUMERICALLY INTEGRATED DENSITY     95.9998295364
 TTTTTTTTTTTTTTTTTTTTTTTTTTTTTT NUMDFT      TELAPSE       38.94 TCPU       38.00
 CYC  20 ETOT(AU) -6.087084806880E+02 DETOT  9.26E-10 tst  1.40E-11 PX  2.77E-05

 == SCF ENDED - CONVERGENCE ON ENERGY      E(AU) -6.0870848068802E+02 CYCLES  20


 ENERGY EXPRESSION=HARTREE+FOCK EXCH*0.00000+(PBE        EXCH)*1.00000+PBE        CORR


 TOTAL ENERGY(DFT)(AU)( 20) -6.0870848068802E+02 DE 9.3E-10 tester 1.4E-11
 TTTTTTTTTTTTTTTTTTTTTTTTTTTTTT EDFT        TELAPSE       38.94 TCPU       38.00

 *******************************************************************************
 *                             FORCE CALCULATION                               *
 *******************************************************************************

 TTTTTTTTTTTTTTTTTTTTTTTTTTTTTT NUMDFG      TELAPSE       39.68 TCPU       38.73
 INFORMATION **** EXCPOG **** EXCH. BIPO BUFFER LENGTH (WORDS) =           0
 INFORMATION **** GENPOG **** BIPO BUFFER LENGTH (WORDS) =     1259500
 TTTTTTTTTTTTTTTTTTTTTTTTTTTTTT SHELXG      TELAPSE       42.19 TCPU       41.25

 CARTESIAN FORCES IN HARTREE/BOHR (ANALYTICAL)
   ATOM                     X                   Y                   Z
   1   6             1.370043269497E-02 -2.056071292212E-02 -6.035527120263E-09
   2   6            -8.192155342960E-03  2.862951986919E-02 -2.012567814294E-08
   3   6            -6.436047670366E-07  1.917814229563E-03  5.686434305440E-09
   4   6            -4.160041638945E-07 -3.954245254112E-02 -1.796630272698E-08
   5   6             8.191967826455E-03  2.863040671305E-02 -2.182777051982E-08
   6   6            -4.494708857883E-07  6.262360426882E-02  7.740557984676E-10
   7   6            -1.370086450831E-02 -2.056119028317E-02 -8.435033688687E-09
   8   6            -2.217546047483E-02  4.647909568877E-03  7.527913004651E-09
   9   6            -1.630046766734E-02  3.053542774121E-03  1.273295324083E-08
  10   6             6.812542147072E-08 -1.078743577321E-02  1.273654404900E-08
  11   6            -1.365881988022E-02 -1.966099224605E-02 -1.293285205698E-08
  12   6             3.866147027520E-07 -3.631854594667E-03  1.705273243558E-08
  13   6             1.630057076157E-02  3.053755404814E-03  1.315091797450E-08
  14   6             2.765087783740E-07 -2.799273784553E-03  1.789544209463E-08
  15   6             1.366053866630E-02 -1.965981527872E-02 -1.276112830117E-08
  16   6             2.217503575515E-02  4.647174595333E-03  1.252721604658E-08

 RESULTANT FORCE    -1.279254480124E-13  1.502131752318E-13 -8.360716635221E-14

 SYMMETRY ALLOWED FORCES (ANALYTICAL) (DIRECTION, FORCE)

    1  2.5464934E-02    2  1.6365330E-03    3 -6.2334602E-09    4 -2.8202512E-02
    5  7.5829059E-03    6 -2.1248541E-08    7 -2.0377255E-03    8  1.6471752E-03
    9  3.9619004E-09   10  3.5170903E-02   11 -1.9797249E-02   12 -2.0339208E-08
   13 -1.9151536E-02   14  2.1490526E-02   15 -2.6144221E-08   16 -5.6151452E-02
   17  3.3926742E-02   18 -4.9345643E-09   19  6.6384626E-03   20 -1.8841522E-02
   21 -1.5162599E-08   22 -2.0228343E-02   23 -1.5480732E-02   24 -2.1038954E-11
   25 -1.8320373E-02   26 -1.2966538E-02   27  5.5405661E-09   28  5.9580118E-04
   29 -7.1996965E-03   30  6.4015732E-09   31  1.6418752E-03   32 -2.6337002E-02
   33 -2.0544971E-08   34 -5.8735390E-03   35 -1.0070078E-02   36  8.3625548E-09
   37 -4.8574005E-03   38  7.1597086E-03   39  6.2905845E-09   40 -1.0643178E-02
   41 -1.0747950E-02   42  1.4707062E-08   43  1.1874601E-02   44 -1.3807862E-02
   45 -1.7881560E-08
 TTTTTTTTTTTTTTTTTTTTTTTTTTTTTT TOTGRA      TELAPSE       43.13 TCPU       42.18
 INFORMATION **** opta001 **** GEOMETRY OUTPUT FILE
 CLASSICAL MODEL (SCHLEGEL) USED AS INITIAL HESSIAN MATRIX
 REFERENCE GEOMETRY DEFINED

 MAX GRADIENT      0.056151  THRESHOLD              0.000450 CONVERGED NO
 RMS GRADIENT      0.015877  THRESHOLD              0.000300 CONVERGED NO

 GRADIENT NORM     0.106508  GRADIENT THRESHOLD     0.500000

 EIGENVALUES OF THE ESTIMATED HESSIAN
  0.8250E-03  0.2444E-02  0.3838E-02  0.4936E-02  0.7779E-02  0.9377E-02
  0.2156E-01  0.2303E-01  0.2799E-01  0.3231E-01  0.3592E-01  0.4729E-01
  0.5673E-01  0.6753E-01  0.7694E-01  0.8219E-01  0.9259E-01  0.1285    
  0.1403      0.1697      0.1853      0.1977      0.2121      0.2734    
  0.3732      0.3959      0.4393      0.4657      0.5245      0.5304    
  0.5843      0.7658      0.7835      0.9884       1.020       1.048    
   1.092       1.152       1.171       1.191       1.208       1.239    
   1.241       1.488       1.499    
 NEWTON STEP ( 0.3277205295E+00) EXCEEDS TRUST RADIUS ( 0.2000000000E+00)
 LEVEL SHIFT     0.8249166526E-03

 INITIAL TRUST RADIUS    0.2000000000E+00

 PREDICTED ENERGY CHANGE    -0.791E-02

 INITIAL DISPLACEMENTS
 -0.000918 -0.009123 -0.000507 -0.007630  0.004988 -0.016737  0.005370 -0.003706
 -0.005514  0.066423 -0.038994  0.027276 -0.003348  0.000003 -0.013117 -0.077268
  0.043713 -0.022204  0.004976  0.005979  0.003274 -0.024735 -0.029153 -0.003005
  0.009221 -0.021785 -0.001912  0.003815 -0.010098 -0.016887 -0.048063 -0.019335
 -0.037838  0.063889 -0.056029  0.079341  0.028714 -0.029412  0.013847 -0.030187
 -0.013364  0.008225 -0.017758  0.005671 -0.026847
 TTTTTTTTTTTTTTTTTTTTTTTTTTTTTT OPTI        TELAPSE       43.15 TCPU       42.19

 OPTOPTOPTOPTOPTOPTOPTOPTOPTOPTOPTOPTOPTOPTOPTOPTOPTOPTOPTOPTOPTOPTOPTOPTOPTOPT

 - INFORMATION ON SCF MOVED TO SCFOUT.LOG
 GEOMETRY OPTIMIZATION INFORMATION STORED IN OPTINFO.DAT

 OPTOPTOPTOPTOPTOPTOPTOPTOPTOPTOPTOPTOPTOPTOPTOPTOPTOPTOPTOPTOPTOPTOPTOPTOPTOPT
 *******************************************************************************
 COORDINATE OPTIMIZATION - POINT    2
 *******************************************************************************
 LATTICE PARAMETERS (ANGSTROMS AND DEGREES) - BOHR = 0.5291772083 ANGSTROM
 PRIMITIVE CELL - CENTRING CODE 1/0 VOLUME=   412.228566 - DENSITY  0.773 g/cm^3
         A              B              C           ALPHA      BETA       GAMMA 
     7.40317242     7.40317242     8.68503800    90.000000  90.000000 120.000000
 *******************************************************************************
 ATOMS IN THE ASYMMETRIC UNIT   16 - ATOMS IN THE UNIT CELL:   16
     ATOM                 X/A                 Y/B                 Z/C    
 *******************************************************************************
      1 T   6 C     1.106830619275E-01  2.214931361352E-01  2.999700698089E-01
      2 T   6 C     1.108115987905E-01 -4.439980883131E-01  2.990168014597E-01
      3 T   6 C     1.113856061151E-01 -1.113856449799E-01  2.997486336765E-01
      4 T   6 C     4.474947760880E-01 -4.474938302829E-01  3.016939816468E-01
      5 T   6 C     4.439990131583E-01 -1.108103268616E-01  2.991990015743E-01
      6 T   6 C    -2.259638680243E-01  2.259627940406E-01  2.987438437573E-01
      7 T   6 C    -2.214917027667E-01 -1.106864284569E-01  3.003519941395E-01
      8 T   6 C     2.195164764955E-01  1.087470396061E-01  2.999691435511E-01
      9 T   6 C     2.224433974839E-01  4.429505937130E-01  3.000543598478E-01
     10 T   6 C     2.225665870733E-01 -2.225655178134E-01  2.992262937524E-01
     11 T   6 C    -4.478090960554E-01  1.102112950568E-01  2.982330550263E-01
     12 T   6 C    -4.411551527700E-01  4.411564569910E-01  3.050824548328E-01
     13 T   6 C    -4.429494364389E-01 -2.224421738033E-01  3.004082332846E-01
     14 T   6 C    -1.127966080783E-01  1.127936825120E-01  2.998432244978E-01
     15 T   6 C    -1.102105336751E-01  4.478089090809E-01  2.980728003281E-01
     16 T   6 C    -1.087463415450E-01 -2.195196744014E-01  3.003861088161E-01

 T = ATOM BELONGING TO THE ASYMMETRIC UNIT

 TOTAL ENERGY(DFT)(AU)( 17) -6.0871661742606E+02     DE (AU)   -8.137E-03

 UPDATED TRUST RADIUS     0.200E+00

 SYMMETRY ALLOWED FORCES  (COORDINATE, FORCE)

    1  1.5038192E-02    2  1.1950128E-03    3 -6.3842760E-04    4 -1.5938952E-02
    5  4.0685014E-03    6  6.2147866E-04    7  6.8451490E-04    8 -9.4894371E-05
    9  1.5841181E-03   10  2.1377930E-02   11 -1.2036289E-02   12 -1.8892063E-03
   13 -1.0330875E-02   14  1.2161818E-02   15  6.5887508E-04   16 -3.0397844E-02
   17  1.8464630E-02   18  8.3936890E-04   19  4.3174731E-03   20 -1.1547070E-02
   21 -7.3653279E-04   22 -1.2936083E-02   23 -1.0211650E-02   24 -2.7269363E-04
   25 -1.0145714E-02   26 -3.0985832E-03   27  3.9108882E-04   28  3.7470862E-03
   29 -5.7053502E-03   30 -1.3954110E-04   31  7.5632863E-03   32 -1.0924744E-02
   33 -1.1368036E-03   34 -5.1287583E-03   35 -2.6149715E-03   36  2.6854241E-03
   37 -5.2792555E-03   38  3.0997998E-03   39  7.4067854E-04   40 -7.4296915E-03
   41 -3.3775858E-03   42  1.1071289E-04   43  6.2482393E-03   44 -1.3858557E-02
   45 -6.5030288E-04

 GRADIENT NORM     0.061368  GRADIENT THRESHOLD     0.500000

 EIGENVALUES OF THE ESTIMATED HESSIAN
  0.7630E-03  0.2443E-02  0.3838E-02  0.4932E-02  0.7773E-02  0.9351E-02
  0.2148E-01  0.2303E-01  0.2796E-01  0.3230E-01  0.3592E-01  0.4691E-01
  0.5661E-01  0.6752E-01  0.7677E-01  0.8219E-01  0.1021      0.1285    
  0.1415      0.1697      0.1853      0.1977      0.2164      0.2730    
  0.3732      0.3933      0.4472      0.4657      0.5290      0.5304    
  0.5800      0.7666      0.7835      0.9358       1.010       1.020    
   1.092       1.148       1.152       1.189       1.208       1.239    
   1.240       1.488       1.506    
 NEWTON STEP ( 0.4918262260E+01) EXCEEDS TRUST RADIUS ( 0.2000000000E+00)
 LEVEL SHIFT    -0.1781978277E-01

 PREDICTED ENERGY CHANGE    -0.390E-02

 MAX GRADIENT      0.030398  THRESHOLD              0.000450 CONVERGED NO
 RMS GRADIENT      0.009148  THRESHOLD              0.000300 CONVERGED NO
 MAX DISPLAC.      0.142812  THRESHOLD              0.001800 CONVERGED NO
 RMS DISPLAC.      0.029814  THRESHOLD              0.001200 CONVERGED NO
 TTTTTTTTTTTTTTTTTTTTTTTTTTTTTT OPTI        TELAPSE       79.59 TCPU       78.41
 *******************************************************************************
 COORDINATE OPTIMIZATION - POINT    3
 *******************************************************************************
 LATTICE PARAMETERS (ANGSTROMS AND DEGREES) - BOHR = 0.5291772083 ANGSTROM
 PRIMITIVE CELL - CENTRING CODE 1/0 VOLUME=   412.228566 - DENSITY  0.773 g/cm^3
         A              B              C           ALPHA      BETA       GAMMA 
     7.40317242     7.40317242     8.68503800    90.000000  90.000000 120.000000
 *******************************************************************************
 ATOMS IN THE ASYMMETRIC UNIT   16 - ATOMS IN THE UNIT CELL:   16
     ATOM                 X/A                 Y/B                 Z/C    
 *******************************************************************************
      1 T   6 C     1.106658758115E-01  2.211083879213E-01  2.989900801072E-01
      2 T   6 C     1.100810637638E-01 -4.439232443665E-01  2.995495881130E-01
      3 T   6 C     1.118385071533E-01 -1.118566846224E-01  3.024386910265E-01
      4 T   6 C     4.494294537517E-01 -4.494124613878E-01  2.994721974901E-01
      5 T   6 C     4.439134949598E-01 -1.100832268441E-01  2.997909813256E-01
      6 T   6 C    -2.284432056403E-01  2.284362444023E-01  2.987804716595E-01
      7 T   6 C    -2.211151767038E-01 -1.106656016600E-01  2.985852275882E-01
      8 T   6 C     2.168063075252E-01  1.063670466904E-01  2.993451220943E-01
      9 T   6 C     2.225433988859E-01  4.423764621052E-01  2.994504123351E-01
     10 T   6 C     2.230670552344E-01 -2.230777897632E-01  3.002482166893E-01
     11 T   6 C    -4.486036490885E-01  1.099797621009E-01  2.957748491288E-01
     12 T   6 C    -4.396662513082E-01  4.397527160757E-01  3.136215852595E-01
     13 T   6 C    -4.423787059997E-01 -2.225310321812E-01  2.996194939109E-01
     14 T   6 C    -1.139807957223E-01  1.139760169712E-01  2.987655450414E-01
     15 T   6 C    -1.099896970957E-01  4.485954895027E-01  2.954109718439E-01
     16 T   6 C    -1.063898977488E-01 -2.168198627217E-01  3.001565663868E-01

 T = ATOM BELONGING TO THE ASYMMETRIC UNIT

 TOTAL ENERGY(DFT)(AU)( 18) -6.0872062796959E+02     DE (AU)   -4.011E-03

 UPDATED TRUST RADIUS     0.200E+00

 SYMMETRY ALLOWED FORCES  (COORDINATE, FORCE)

    1  5.4170180E-03    2  3.7505950E-04    3 -1.8540127E-03    4 -5.8219497E-03
    5  1.3291484E-03    6 -8.0775978E-04    7  4.1296096E-03    8 -2.1859688E-03
    9  8.0158097E-05   10  1.0260089E-02   11 -5.8280102E-03   12  1.4464038E-03
   13 -3.1901462E-03   14  4.3442639E-03   15 -8.0982175E-04   16 -1.1356891E-02
   17  6.8442918E-03   18 -1.6547361E-03   19  2.0830180E-03   20 -4.3472188E-03
   21 -7.9719118E-04   22 -7.5571875E-03   23 -2.5517109E-03   24  6.5452980E-04
   25 -3.2516266E-03   26  7.0946317E-04   27 -9.3048368E-04   28  3.7009639E-03
   29 -3.1901650E-03   30  9.6086772E-04   31  5.3789983E-03   32 -3.9738867E-03
   33 -2.4518934E-03   34 -3.9721377E-03   35  1.3146295E-03   36  6.1006401E-03
   37 -2.8251379E-03   38  4.0905189E-04   39 -4.6576625E-04   40 -3.3340251E-04
   41 -2.1342379E-03   42  7.0842122E-04   43  4.8536898E-03   44 -7.4492588E-03
   45 -1.8928345E-03

 GRADIENT NORM     0.027694  GRADIENT THRESHOLD     0.500000

 EIGENVALUES OF THE ESTIMATED HESSIAN
  0.5081E-03  0.2459E-02  0.3839E-02  0.4964E-02  0.7743E-02  0.9427E-02
  0.2252E-01  0.2304E-01  0.2817E-01  0.3243E-01  0.3591E-01  0.5038E-01
  0.5914E-01  0.6746E-01  0.7785E-01  0.8219E-01  0.1109      0.1285    
  0.1470      0.1697      0.1853      0.1977      0.2167      0.2731    
  0.3732      0.4077      0.4467      0.4657      0.5092      0.5304    
  0.5977      0.7835      0.8020      0.8791       1.012       1.020    
   1.092       1.152       1.153       1.203       1.208       1.239    
   1.244       1.488       1.513    
 NEWTON STEP ( 0.1907020895E+02) EXCEEDS TRUST RADIUS ( 0.2000000000E+00)
 LEVEL SHIFT    -0.4793373946E-01

 PREDICTED ENERGY CHANGE    -0.251E-02

 MAX GRADIENT      0.011357  THRESHOLD              0.000450 CONVERGED NO
 RMS GRADIENT      0.004128  THRESHOLD              0.000300 CONVERGED NO
 MAX DISPLAC.      0.155353  THRESHOLD              0.001800 CONVERGED NO
 RMS DISPLAC.      0.029814  THRESHOLD              0.001200 CONVERGED NO
 TTTTTTTTTTTTTTTTTTTTTTTTTTTTTT OPTI        TELAPSE      117.68 TCPU      116.25
 *******************************************************************************
 COORDINATE OPTIMIZATION - POINT    4
 *******************************************************************************
 LATTICE PARAMETERS (ANGSTROMS AND DEGREES) - BOHR = 0.5291772083 ANGSTROM
 PRIMITIVE CELL - CENTRING CODE 1/0 VOLUME=   412.228566 - DENSITY  0.773 g/cm^3
         A              B              C           ALPHA      BETA       GAMMA 
     7.40317242     7.40317242     8.68503800    90.000000  90.000000 120.000000
 *******************************************************************************
 ATOMS IN THE ASYMMETRIC UNIT   16 - ATOMS IN THE UNIT CELL:   16
     ATOM                 X/A                 Y/B                 Z/C    
 *******************************************************************************
      1 T   6 C     1.107696517233E-01  2.209510706436E-01  2.979545377247E-01
[...]

  10 C    1     1.3927     2.6319    2 C    0 0 0
  10 C    1     1.4282     2.6988    3 C    0 0 0
  10 C    1     1.4283     2.6991    5 C    0 0 0
  10 C    1     2.4275     4.5873   11 C    0 1 0
  10 C    1     2.4276     4.5874    8 C    0 1 0
  10 C    1     2.4640     4.6562   15 C   -1 0 0

  11 C    1     1.3866     2.6203    5 C    0-1 0
  11 C    1     1.4370     2.7155    6 C    0 0 0
  11 C    1     2.2686     4.2870    8 C    0 0 0
  11 C    1     2.4275     4.5873   10 C    0-1 0
  11 C    1     2.4520     4.6336   13 C    0-1 0
  11 C    1     2.5186     4.7594   15 C    0 0 0

  12 C    1     1.3868     2.6206   16 C    0 0 0
  12 C    1     1.4375     2.7164   15 C    0 0 0
  12 C    1     2.2670     4.2840    4 C    0 0 0
  12 C    1     2.4273     4.5870    7 C    0 0 0
  12 C    1     2.4527     4.6350    3 C    1 0 0
  12 C    1     2.5190     4.7602    6 C    0 0 0

  13 C    1     1.3866     2.6203    4 C    0 0 0
  13 C    1     1.4281     2.6988    7 C    0 0 0
  13 C    1     1.4430     2.7269    5 C    0 0 0
  13 C    1     2.4160     4.5656   16 C    0 0 0
  13 C    1     2.4409     4.6126    9 C    0 0 0
  13 C    1     2.4520     4.6336   11 C    0 1 0

  14 C    1     1.3926     2.6317    7 C    0-1 0
  14 C    1     1.5113     2.8560    6 C    0 0 0
  14 C    1     1.5114     2.8562    1 C    1 0 0
  14 C    1     2.4699     4.6675   16 C    0-1 0
  14 C    1     2.4699     4.6675   13 C    0-1 0
  14 C    1     2.4977     4.7200   15 C    0 0 0

  15 C    1     1.4330     2.7081    6 C    0 0 0
  15 C    1     1.4375     2.7164   12 C    0 0 0
  15 C    1     1.5117     2.8566    2 C    1 0 0
  15 C    1     2.4410     4.6128   16 C    0 0 0
  15 C    1     2.4640     4.6562   10 C    1 0 0
  15 C    1     2.4977     4.7200   14 C    0 0 0

  16 C    1     1.3868     2.6206   12 C    0 0 0
  16 C    1     1.4281     2.6988    7 C    0 0 0
  16 C    1     1.4433     2.7274    3 C    1 0 0
  16 C    1     2.4160     4.5656   13 C    0 0 0
  16 C    1     2.4410     4.6128   15 C    0 0 0
  16 C    1     2.4522     4.6339    8 C    1 1 0


 FINAL OPTIMIZED GEOMETRY - DIMENSIONALITY OF THE SYSTEM      3
 (NON PERIODIC DIRECTION: LATTICE PARAMETER FORMALLY SET TO 500)
 *******************************************************************************
 LATTICE PARAMETERS (ANGSTROMS AND DEGREES) - BOHR = 0.5291772083 ANGSTROM
 PRIMITIVE CELL - CENTRING CODE 1/0 VOLUME=   412.228566 - DENSITY  0.773 g/cm^3
         A              B              C           ALPHA      BETA       GAMMA 
     7.40317242     7.40317242     8.68503800    90.000000  90.000000 120.000000
 *******************************************************************************
 ATOMS IN THE ASYMMETRIC UNIT   16 - ATOMS IN THE UNIT CELL:   16
     ATOM                 X/A                 Y/B                 Z/C    
 *******************************************************************************
      1 T   6 C     1.137136568823E-01  2.146409693734E-01  2.999737024846E-01
      2 T   6 C     9.370276045026E-02 -4.584569627106E-01  2.999948015057E-01
      3 T   6 C     9.850305791980E-02 -1.224407494709E-01  3.000328692058E-01
      4 T   6 C     4.493939977426E-01 -4.407504958458E-01  3.000350254722E-01
      5 T   6 C     4.249123367527E-01 -1.224382714345E-01  3.000100658329E-01
      6 T   6 C    -2.532196104521E-01  2.146357177069E-01  2.999739013749E-01
      7 T   6 C    -2.300779138672E-01 -1.059785707249E-01  3.000707286122E-01
      8 T   6 C     2.164666779354E-01  9.353400571132E-02  2.999900121288E-01
      9 T   6 C     2.255218209965E-01  4.381517885834E-01  2.999533301606E-01
     10 T   6 C     2.023064371929E-01 -2.412256964299E-01  2.999947099041E-01
     11 T   6 C    -4.771044142625E-01  9.352369151888E-02  2.999441518307E-01
     12 T   6 C    -2.444016566394E-01 -4.407804952929E-01  2.999962231811E-01
     13 T   6 C    -4.526583444204E-01 -2.247842456360E-01  3.000659828269E-01
     14 T   6 C    -1.214610697655E-01  1.112339241741E-01  2.999949916739E-01
     15 T   6 C    -1.415067144543E-01  4.381520729592E-01  2.999362762296E-01
     16 T   6 C    -1.263132442327E-01 -2.247944602587E-01  3.000332275760E-01

 T = ATOM BELONGING TO THE ASYMMETRIC UNIT
 INFORMATION **** fort.34 **** GEOMETRY OUTPUT FILE

 DIRECT LATTICE VECTORS CARTESIAN COMPONENTS (ANGSTROM)
          X                    Y                    Z
   0.370158621205E+01  -0.641133538787E+01   0.000000000000E+00
   0.370158621205E+01   0.641133538787E+01   0.000000000000E+00
   0.000000000000E+00   0.000000000000E+00   0.868503800000E+01


 CARTESIAN COORDINATES - PRIMITIVE CELL
 *******************************************************************************
 *      ATOM          X(ANGSTROM)         Y(ANGSTROM)         Z(ANGSTROM)
 *******************************************************************************
    1     6 C     1.215432957211E+00  6.470788501760E-01  2.605283005080E+00
    2     6 C     2.351417086175E+00  2.871254215010E+00  2.605466250879E+00
    3     6 C     3.612978783055E+00  4.994790536812E+00  2.605796870301E+00
    4     6 C     3.733580879494E+00  7.043204958089E-01  2.605815597557E+00
    5     6 C     4.821220041733E+00  2.902087064025E+00  2.605598822142E+00
    6     6 C     3.558764606656E+00 -3.411757966038E+00  2.605284732449E+00
    7     6 C     6.159230374262E+00  7.956425102989E-01  2.606125680684E+00
    8     6 C     1.147494256312E+00 -7.881625917552E-01  2.605424654959E+00
    9     6 C     2.456645082522E+00  1.363242035711E+00  2.605106070671E+00
   10     6 C     3.557523218674E+00  3.567702123914E+00  2.605465455316E+00
   11     6 C     2.281729097533E+00 -2.752847219959E+00  2.605026356528E+00
   12     6 C     4.866911617763E+00 -1.259050597687E+00  2.605478598184E+00
   13     6 C     4.895560273290E+00  1.460977273514E+00  2.606084463359E+00
   14     6 C     3.663729550939E+00 -4.919449738642E+00  2.605467902497E+00
   15     6 C     4.799644580959E+00 -2.694948491235E+00  2.604957956633E+00
   16     6 C     6.103516986208E+00 -6.313961053476E-01  2.605799982760E+00

 ****    1 SYMMOPS - TRANSLATORS IN FRACTIONAL UNITS
 **** MATRICES AND TRANSLATORS IN THE CRYSTALLOGRAPHIC REFERENCE FRAME
   V INV                    ROTATION MATRICES                   TRANSLATORS
   1   1  1.00  0.00  0.00  0.00  1.00  0.00  0.00  0.00  1.00  0.00  0.00  0.00
 TTTTTTTTTTTTTTTTTTTTTTTTTTTTTT END         TELAPSE     1665.83 TCPU     1646.64
 EEEEEEEEEE TERMINATION  DATE 01 11 2022 TIME 21:25:31.0
NODE    0 CPU TIME =      1646.638
    TOTAL CPU TIME =    212073.260
Note: The following floating-point exceptions are signalling: IEEE_UNDERFLOW_FLAG IEEE_DENORMAL
Note: The following floating-point exceptions are signalling: IEEE_UNDERFLOW_FLAG IEEE_DENORMAL
Note: The following floating-point exceptions are signalling: IEEE_UNDERFLOW_FLAG IEEE_DENORMAL
Note: The following floating-point exceptions are signalling: IEEE_UNDERFLOW_FLAG IEEE_DENORMAL
Note: The following floating-point exceptions are signalling: IEEE_UNDERFLOW_FLAG IEEE_DENORMAL
Note: The following floating-point exceptions are signalling: IEEE_UNDERFLOW_FLAG IEEE_DENORMAL
Note: The following floating-point exceptions are signalling: IEEE_UNDERFLOW_FLAG IEEE_DENORMAL
Note: The following floating-point exceptions are signalling: IEEE_UNDERFLOW_FLAG IEEE_DENORMAL
Note: The following floating-point exceptions are signalling: IEEE_UNDERFLOW_FLAG IEEE_DENORMAL
Note: The following floating-point exceptions are signalling: IEEE_UNDERFLOW_FLAG IEEE_DENORMAL
Note: The following floating-point exceptions are signalling: IEEE_UNDERFLOW_FLAG IEEE_DENORMAL
Note: The following floating-point exceptions are signalling: IEEE_UNDERFLOW_FLAG IEEE_DENORMAL
Note: The following floating-point exceptions are signalling: IEEE_UNDERFLOW_FLAG IEEE_DENORMAL
Note: The following floating-point exceptions are signalling: IEEE_UNDERFLOW_FLAG IEEE_DENORMAL
Note: The following floating-point exceptions are signalling: IEEE_UNDERFLOW_FLAG IEEE_DENORMAL
Note: The following floating-point exceptions are signalling: IEEE_UNDERFLOW_FLAG IEEE_DENORMAL
Note: The following floating-point exceptions are signalling: IEEE_UNDERFLOW_FLAG IEEE_DENORMAL
Note: The following floating-point exceptions are signalling: IEEE_UNDERFLOW_FLAG IEEE_DENORMAL
Note: The following floating-point exceptions are signalling: IEEE_UNDERFLOW_FLAG IEEE_DENORMAL
Note: The following floating-point exceptions are signalling: IEEE_UNDERFLOW_FLAG IEEE_DENORMAL
Note: The following floating-point exceptions are signalling: IEEE_UNDERFLOW_FLAG IEEE_DENORMAL
Note: The following floating-point exceptions are signalling: IEEE_UNDERFLOW_FLAG IEEE_DENORMAL
Note: The following floating-point exceptions are signalling: IEEE_UNDERFLOW_FLAG IEEE_DENORMAL
Note: The following floating-point exceptions are signalling: IEEE_UNDERFLOW_FLAG IEEE_DENORMAL
Note: The following floating-point exceptions are signalling: IEEE_UNDERFLOW_FLAG IEEE_DENORMAL
Note: The following floating-point exceptions are signalling: IEEE_UNDERFLOW_FLAG IEEE_DENORMAL
Note: The following floating-point exceptions are signalling: IEEE_UNDERFLOW_FLAG IEEE_DENORMAL
Note: The following floating-point exceptions are signalling: IEEE_UNDERFLOW_FLAG IEEE_DENORMAL
Note: The following floating-point exceptions are signalling: IEEE_UNDERFLOW_FLAG IEEE_DENORMAL
Note: The following floating-point exceptions are signalling: IEEE_UNDERFLOW_FLAG IEEE_DENORMAL
Note: The following floating-point exceptions are signalling: IEEE_UNDERFLOW_FLAG IEEE_DENORMAL
Note: The following floating-point exceptions are signalling: IEEE_UNDERFLOW_FLAG IEEE_DENORMAL
Note: The following floating-point exceptions are signalling: IEEE_UNDERFLOW_FLAG IEEE_DENORMAL
Note: The following floating-point exceptions are signalling: IEEE_UNDERFLOW_FLAG IEEE_DENORMAL
Note: The following floating-point exceptions are signalling: IEEE_UNDERFLOW_FLAG IEEE_DENORMAL
Note: The following floating-point exceptions are signalling: IEEE_UNDERFLOW_FLAG IEEE_DENORMAL
Note: The following floating-point exceptions are signalling: IEEE_UNDERFLOW_FLAG IEEE_DENORMAL
Note: The following floating-point exceptions are signalling: IEEE_UNDERFLOW_FLAG IEEE_DENORMAL
Note: The following floating-point exceptions are signalling: IEEE_UNDERFLOW_FLAG IEEE_DENORMAL
Note: The following floating-point exceptions are signalling: IEEE_UNDERFLOW_FLAG IEEE_DENORMAL
Note: The following floating-point exceptions are signalling: IEEE_UNDERFLOW_FLAG IEEE_DENORMAL
Note: The following floating-point exceptions are signalling: IEEE_UNDERFLOW_FLAG IEEE_DENORMAL
Note: The following floating-point exceptions are signalling: IEEE_UNDERFLOW_FLAG IEEE_DENORMAL
Note: The following floating-point exceptions are signalling: IEEE_UNDERFLOW_FLAG IEEE_DENORMAL
Note: The following floating-point exceptions are signalling: IEEE_UNDERFLOW_FLAG IEEE_DENORMAL
Note: The following floating-point exceptions are signalling: IEEE_UNDERFLOW_FLAG IEEE_DENORMAL
Note: The following floating-point exceptions are signalling: IEEE_UNDERFLOW_FLAG IEEE_DENORMAL
Note: The following floating-point exceptions are signalling: IEEE_UNDERFLOW_FLAG IEEE_DENORMAL
Note: The following floating-point exceptions are signalling: IEEE_UNDERFLOW_FLAG IEEE_DENORMAL
Note: The following floating-point exceptions are signalling: IEEE_UNDERFLOW_FLAG IEEE_DENORMAL
Note: The following floating-point exceptions are signalling: IEEE_UNDERFLOW_FLAG IEEE_DENORMAL
Note: The following floating-point exceptions are signalling: IEEE_UNDERFLOW_FLAG IEEE_DENORMAL
Note: The following floating-point exceptions are signalling: IEEE_UNDERFLOW_FLAG IEEE_DENORMAL
Note: The following floating-point exceptions are signalling: IEEE_UNDERFLOW_FLAG IEEE_DENORMAL
Note: The following floating-point exceptions are signalling: IEEE_UNDERFLOW_FLAG IEEE_DENORMAL
Note: The following floating-point exceptions are signalling: IEEE_UNDERFLOW_FLAG IEEE_DENORMAL
Note: The following floating-point exceptions are signalling: IEEE_UNDERFLOW_FLAG IEEE_DENORMAL
Note: The following floating-point exceptions are signalling: IEEE_UNDERFLOW_FLAG IEEE_DENORMAL
Note: The following floating-point exceptions are signalling: IEEE_UNDERFLOW_FLAG IEEE_DENORMAL
Note: The following floating-point exceptions are signalling: IEEE_UNDERFLOW_FLAG IEEE_DENORMAL
Note: The following floating-point exceptions are signalling: IEEE_UNDERFLOW_FLAG IEEE_DENORMAL
Note: The following floating-point exceptions are signalling: IEEE_UNDERFLOW_FLAG IEEE_DENORMAL
Note: The following floating-point exceptions are signalling: IEEE_UNDERFLOW_FLAG IEEE_DENORMAL
Note: The following floating-point exceptions are signalling: IEEE_UNDERFLOW_FLAG IEEE_DENORMAL
Note: The following floating-point exceptions are signalling: IEEE_UNDERFLOW_FLAG IEEE_DENORMAL
Note: The following floating-point exceptions are signalling: IEEE_UNDERFLOW_FLAG IEEE_DENORMAL
Note: The following floating-point exceptions are signalling: IEEE_UNDERFLOW_FLAG IEEE_DENORMAL
Note: The following floating-point exceptions are signalling: IEEE_UNDERFLOW_FLAG IEEE_DENORMAL
Note: The following floating-point exceptions are signalling: IEEE_UNDERFLOW_FLAG IEEE_DENORMAL
Note: The following floating-point exceptions are signalling: IEEE_UNDERFLOW_FLAG IEEE_DENORMAL
Note: The following floating-point exceptions are signalling: IEEE_UNDERFLOW_FLAG IEEE_DENORMAL
Note: The following floating-point exceptions are signalling: IEEE_UNDERFLOW_FLAG IEEE_DENORMAL
Note: The following floating-point exceptions are signalling: IEEE_UNDERFLOW_FLAG IEEE_DENORMAL
Note: The following floating-point exceptions are signalling: IEEE_UNDERFLOW_FLAG IEEE_DENORMAL
Note: The following floating-point exceptions are signalling: IEEE_UNDERFLOW_FLAG IEEE_DENORMAL
Note: The following floating-point exceptions are signalling: IEEE_UNDERFLOW_FLAG IEEE_DENORMAL
Note: The following floating-point exceptions are signalling: IEEE_UNDERFLOW_FLAG IEEE_DENORMAL
Note: The following floating-point exceptions are signalling: IEEE_UNDERFLOW_FLAG IEEE_DENORMAL
Note: The following floating-point exceptions are signalling: IEEE_UNDERFLOW_FLAG IEEE_DENORMAL
Note: The following floating-point exceptions are signalling: IEEE_UNDERFLOW_FLAG IEEE_DENORMAL
Note: The following floating-point exceptions are signalling: IEEE_UNDERFLOW_FLAG IEEE_DENORMAL
Note: The following floating-point exceptions are signalling: IEEE_UNDERFLOW_FLAG IEEE_DENORMAL
Note: The following floating-point exceptions are signalling: IEEE_UNDERFLOW_FLAG IEEE_DENORMAL
Note: The following floating-point exceptions are signalling: IEEE_UNDERFLOW_FLAG IEEE_DENORMAL
Note: The following floating-point exceptions are signalling: IEEE_UNDERFLOW_FLAG IEEE_DENORMAL
Note: The following floating-point exceptions are signalling: IEEE_UNDERFLOW_FLAG IEEE_DENORMAL
Note: The following floating-point exceptions are signalling: IEEE_UNDERFLOW_FLAG IEEE_DENORMAL
Note: The following floating-point exceptions are signalling: IEEE_UNDERFLOW_FLAG IEEE_DENORMAL
Note: The following floating-point exceptions are signalling: IEEE_UNDERFLOW_FLAG IEEE_DENORMAL
Note: The following floating-point exceptions are signalling: IEEE_UNDERFLOW_FLAG IEEE_DENORMAL
Note: The following floating-point exceptions are signalling: IEEE_UNDERFLOW_FLAG IEEE_DENORMAL
Note: The following floating-point exceptions are signalling: IEEE_UNDERFLOW_FLAG IEEE_DENORMAL
Note: The following floating-point exceptions are signalling: IEEE_UNDERFLOW_FLAG IEEE_DENORMAL
Note: The following floating-point exceptions are signalling: IEEE_UNDERFLOW_FLAG IEEE_DENORMAL
Note: The following floating-point exceptions are signalling: IEEE_UNDERFLOW_FLAG IEEE_DENORMAL
Note: The following floating-point exceptions are signalling: IEEE_UNDERFLOW_FLAG IEEE_DENORMAL
Note: The following floating-point exceptions are signalling: IEEE_UNDERFLOW_FLAG IEEE_DENORMAL
Note: The following floating-point exceptions are signalling: IEEE_UNDERFLOW_FLAG IEEE_DENORMAL
Note: The following floating-point exceptions are signalling: IEEE_UNDERFLOW_FLAG IEEE_DENORMAL
Note: The following floating-point exceptions are signalling: IEEE_UNDERFLOW_FLAG IEEE_DENORMAL
Note: The following floating-point exceptions are signalling: IEEE_UNDERFLOW_FLAG IEEE_DENORMAL
Note: The following floating-point exceptions are signalling: IEEE_UNDERFLOW_FLAG IEEE_DENORMAL
Note: The following floating-point exceptions are signalling: IEEE_UNDERFLOW_FLAG IEEE_DENORMAL
Note: The following floating-point exceptions are signalling: IEEE_UNDERFLOW_FLAG IEEE_DENORMAL
Note: The following floating-point exceptions are signalling: IEEE_UNDERFLOW_FLAG IEEE_DENORMAL
Note: The following floating-point exceptions are signalling: IEEE_UNDERFLOW_FLAG IEEE_DENORMAL
Note: The following floating-point exceptions are signalling: IEEE_UNDERFLOW_FLAG IEEE_DENORMAL
Note: The following floating-point exceptions are signalling: IEEE_UNDERFLOW_FLAG IEEE_DENORMAL
Note: The following floating-point exceptions are signalling: IEEE_UNDERFLOW_FLAG IEEE_DENORMAL
Note: The following floating-point exceptions are signalling: IEEE_UNDERFLOW_FLAG IEEE_DENORMAL
Note: The following floating-point exceptions are signalling: IEEE_UNDERFLOW_FLAG IEEE_DENORMAL
Note: The following floating-point exceptions are signalling: IEEE_UNDERFLOW_FLAG IEEE_DENORMAL
Note: The following floating-point exceptions are signalling: IEEE_UNDERFLOW_FLAG IEEE_DENORMAL
Note: The following floating-point exceptions are signalling: IEEE_UNDERFLOW_FLAG IEEE_DENORMAL
Note: The following floating-point exceptions are signalling: IEEE_UNDERFLOW_FLAG IEEE_DENORMAL
Note: The following floating-point exceptions are signalling: IEEE_UNDERFLOW_FLAG IEEE_DENORMAL
Note: The following floating-point exceptions are signalling: IEEE_UNDERFLOW_FLAG IEEE_DENORMAL
Note: The following floating-point exceptions are signalling: IEEE_UNDERFLOW_FLAG IEEE_DENORMAL
Note: The following floating-point exceptions are signalling: IEEE_UNDERFLOW_FLAG IEEE_DENORMAL
Note: The following floating-point exceptions are signalling: IEEE_UNDERFLOW_FLAG IEEE_DENORMAL
Note: The following floating-point exceptions are signalling: IEEE_UNDERFLOW_FLAG IEEE_DENORMAL
Note: The following floating-point exceptions are signalling: IEEE_UNDERFLOW_FLAG IEEE_DENORMAL
Note: The following floating-point exceptions are signalling: IEEE_UNDERFLOW_FLAG IEEE_DENORMAL
Note: The following floating-point exceptions are signalling: IEEE_UNDERFLOW_FLAG IEEE_DENORMAL
Note: The following floating-point exceptions are signalling: IEEE_UNDERFLOW_FLAG IEEE_DENORMAL
Note: The following floating-point exceptions are signalling: IEEE_UNDERFLOW_FLAG IEEE_DENORMAL
Note: The following floating-point exceptions are signalling: IEEE_UNDERFLOW_FLAG IEEE_DENORMAL
Note: The following floating-point exceptions are signalling: IEEE_UNDERFLOW_FLAG IEEE_DENORMAL
end_date Tue Nov  1 21:25:31 GMT 2022
 
TEMPORARY          SAVED (in /mnt/lustre/a2fs-work2/work/e05/e05/bcamino/quantum_computing/test_model/optgeom)
fort.34            graphene_2v_C.gui 1558     Nov 1 21:25
fort.33            graphene_2v_C.xyz 62121    Nov 1 21:25
fort.9             graphene_2v_C.f9  1727628  Nov 1 21:25
fort.98            graphene_2v_C.f98 4499503  Nov 1 21:25
SCFOUT.LOG         graphene_2v_C.SCFLOG1174113  Nov 1 21:25
OPTINFO.DAT        graphene_2v_C.OPTINFO12705868 Nov 1 21:25
HESSOPT.DAT        graphene_2v_C.HESSOPT43032    Nov 1 21:25
opta001            opta002            
Disk usage:<du -m>
517	/mnt/lustre/a2fs-work2/work/e05/e05/bcamino/quantum_computing/test_model/optgeom/tmp_graphene_2v_C_
</du -m>
Filesystem                                          1K-blocks          Used     Available Use% Mounted on
10.253.102.2@o2ib1:10.253.102.3@o2ib1:/cls01097 3582178503216 1746695955052 1799258388220  50% /mnt/lustre/a2fs-work2
10.253.102.2@o2ib1:10.253.102.3@o2ib1:/cls01097 3582178503216 1746695955052 1799258388220  50% /mnt/lustre/a2fs-work2
