date:                Tue Nov  1 21:39:48 GMT 2022
hostname:            nid005097
system:              Linux nid005097 4.12.14-197.78_9.1.64-cray_shasta_c #1 SMP Wed Aug 25 14:56:40 UTC 2021 (4e2a900) x86_64 x86_64 x86_64 GNU/Linux
user:                bcamino
input:               /mnt/lustre/a2fs-work2/work/e05/e05/bcamino/quantum_computing/test_model/optgeom/graphene_3v_F.d12
output:              /mnt/lustre/a2fs-work2/work/e05/e05/bcamino/quantum_computing/test_model/optgeom/graphene_3v_F.out
executable script:   /work/e05/e05/bcamino/runCRYSTAL/Pcry_slurm
executable:          Pcrystal
Command:             srun --hint=nomultithread --distribution=block:block Pcrystal
Slurm JobID:         
temporary directory: /mnt/lustre/a2fs-work2/work/e05/e05/bcamino/quantum_computing/test_model/optgeom/tmp_graphene_3v_F_      
input data /mnt/lustre/a2fs-work2/work/e05/e05/bcamino/quantum_computing/test_model/optgeom/graphene_3v_F.d12
Final
EXTERNAL
SYMMREMO
OPTGEOM
ATOMONLY
MAXTRADIUS
0.2
TRUSTRADIUS
0.25
MAXCYCLE
500
END
END
6 8
0 0 6 2.0 1.0
  13575.349682      0.00022245814352
  2035.2333680      0.00172327382520
  463.22562359      0.00892557153140
  131.20019598      0.03572798450200
  42.853015891      0.11076259931000
  15.584185766      0.24295627626000
0 0 2 2.0 1.0
  6.2067138508      0.41440263448000
  2.5764896527      0.23744968655000
0 0 1 0.0 1.0
  0.4941102000      1.00000000000000
0 0 1 0.0 1.0
  0.1644071000      1.00000000000000
0 2 4 2.0 1.0
  34.697232244      0.00533336578050
  7.9582622826      0.03586410909200
  2.3780826883      0.14215873329000
  0.8143320818      0.34270471845000
0 2 1 0.0 1.0
  0.5662417100      1.00000000000000
0 2 1 0.0 1.0
  0.1973545000      1.00000000000000
0 3 1 0.0 1.0
  0.5791584200      1.00000000000000
99 0
ENDBS
DFT
PBE  
ENDDFT
TOLINTEG
8 8 8 8 16
SCFDIR
SHRINK
8 16  
MAXCYCLE
200
TOLDEE
9 
ENDSCF
input data /mnt/lustre/a2fs-work2/work/e05/e05/bcamino/quantum_computing/test_model/optgeom/graphene_3v_F.gui
         128 PROCESSORS WORKING

         
 *******************************************************************************
 *                                                                             *
 *                               CRYSTAL17                                     *
 *                      public : 1.0.2 - March 1st, 2018 STFC/Archer2 build    *
 *                       HTTP://WWW.CRYSTAL.UNITO.IT                           *
 *                                                                             *
 *                              MAIN AUTHORS                                   *
 *                                                                             *
 *  R. DOVESI(1,11), V.R. SAUNDERS(2), C. ROETTI(1,11), R. ORLANDO(1,11),      *
 *  C.M. ZICOVICH-WILSON(1,3), F. PASCALE(4), B. CIVALLERI(1,11),              *
 *  K. DOLL(5), N.M. HARRISON(2,6), I.J. BUSH(7), Ph. D'ARCO(8),               *
 *  M. LLUNELL(9), M. CAUSA'(10), Y. NOEL(8), L. MASCHIO(1,11), A. ERBA(1,11)  *
 *  M. RE'RAT(14), S. CASASSA(1,11)                                            *
 *                                                                             *
 *        CONTRIBUTIONS TO THE CODE HAVE ALSO BEEN GIVEN BY                    *
 *                                                                             *
 *  M. FERRABONE(1,11), M. DE LA PIERRE(1,11), M. FERRERO(1,11),               *
 *  J. BAIMA(1,11), E. ALBANESE(1,11), M.F. PEINTINGER(12), R. BAST(13),       *
 *  B. KIRTMAN(15), V. LACIVITA(1,11), R. DEMICHELIS(1,16)                     *
 *  G. BRANDEBURG(17), S. SALUSTRO(1,11), G. SANSONE(1,11)                     *
 *  M.T. RUGGIERO(18)                                                          *
 *                                                                             *
 * (1) THEORETICAL CHEMISTRY GROUP - UNIVERSITA' DI TORINO - TORINO (ITALY)    *
 * (2) COMPUTATIONAL SCIENCE & ENGINEERING DEPARTMENT - STFC DARESBURY (UK)    *
 * (3) UNIVERSIDAD AUTONOMA DEL ESTADO DE MORELOS - CUERNAVACA (MEXICO)        *
 * (4) UNIVERSITE' DE LORRAINE - NANCY (FRANCE)                                *
 * (5) UNIVERSITAET STUTTGART- STUTTGART (GERMANY)                             *
 * (6) IMPERIAL COLLEGE - LONDON (UK)                                          *
 * (7) OXFORD E-RESEARCH CENTRE - OXFORD (UK)                                  *
 * (8) UPMC - SORBONNE UNIVERSITES - PARIS (FRANCE)                            *
 * (9) UNIVERSIDAD DE BARCELONA - BARCELONA (SPAIN)                            *
 *(10) UNIVERSITA' DI NAPOLI "FEDERICO II" - NAPOLI (ITALY)                    *
 *(11) NIS - NANOSTRUCTURED INTERFACES AND SURFACES - TORINO (ITALY)           *
 *(12) MPI FUER CHEMISCHE ENERGIEKONVERSION - MUELHEIM AN DER RUHR (GERMANY)   *
 *(13) UNIVERSITY OF TROMSO - TROMSO (NORWAY)                                  *
 *(14) UNIVERSITE' DE PAU ET DES PAYS DE L'ADOUR - PAU (FRANCE)                *
 *(15) UNIVERSITY OF CALIFORNIA SANTA BARBARA - SANTA BARBARA (USA)            *
 *(16) CURTIN UNIVERSITY - PERTH (AUSTRALIA)                                   *
 *(17) UNIVERSITY COLLEGE LONDON - LONDON (UK)                                 *
 *(18) CAMBRIDGE UNIVERSITY - CAMBRIDGE (UK)                                   *
 *                                                                             *
 *******************************************************************************
 EEEEEEEEEE STARTING  DATE 01 11 2022 TIME 21:39:52.7
 Final                                                                           

 GEOMETRY INPUT FROM EXTERNAL FILE (FORTRAN UNIT 34)
 3D - CRYSTAL 

 *******************************************************************************
 LATTICE PARAMETERS  (ANGSTROMS AND DEGREES) - PRIMITIVE CELL
       A          B          C        ALPHA      BETA     GAMMA        VOLUME
    7.40317    7.40317    8.68504    90.00000  90.00000 120.00000    412.228566
 INFORMATION **** CHKGRP **** SPGR WITH NO INVERSION

 NUMBER OF IRREDUCIBLE ATOMS IN THE CELL:   15

 CARTESIAN COORDINATES (ANGSTROM) - IRREDUCIBLE ATOMS AND SYMMETRY RELATED

 AT.IRR.  AT  AT.N.          X                   Y                   Z
     1     1     6    2.579652369118E+00 -1.489410240148E+00  2.605544409569E+00
     2     2     6    3.722462689500E+00  6.464968086730E-01  2.637029328903E+00
     3     3     6    5.003111830351E+00  2.864216645873E+00  2.573945709595E+00
     4     4     6    3.822517650564E+00 -3.613420264421E+00  2.580545339607E+00
     5     5     6    5.040505743273E+00 -1.503556096995E+00  2.630486682072E+00
     6     6     6    6.249502382044E+00  6.661154174380E-01  2.605486862121E+00
     7     7     6    1.335998712763E+00 -7.714326660800E-01  2.605507087596E+00
     8     8     6    1.334283212218E+00  6.185031206850E-01  2.586179535935E+00
     9     9     6    3.833014341833E+00  4.946494614964E+00  2.624851973635E+00
    10    10     6    2.533744912183E+00 -2.894477422600E+00  2.562248498415E+00
    11    11     6    3.773492179617E+00 -7.469832083870E-01  2.648796813221E+00
    12    12     6    4.908723250075E+00  1.440131519906E+00  2.605501214021E+00
    13    13     6    3.818953289342E+00 -5.052994542095E+00  2.597076499821E+00
    14    14     6    4.983954657424E+00 -2.877414837729E+00  2.605558774808E+00
    15    15     6    6.285462172486E+00 -7.807160329050E-01  2.613912270682E+00

 SPACE  GROUP  N.                     :    1
 NUMBER OF SYMMETRY OPERATORS         :    1
 *******************************************************************************
 LATTICE PARAMETERS (ANGSTROMS AND DEGREES) - BOHR = 0.5291772083 ANGSTROM
 PRIMITIVE CELL - CENTRING CODE 1/0 VOLUME=   412.228566 - DENSITY  0.725 g/cm^3
         A              B              C           ALPHA      BETA       GAMMA 
     7.40317242     7.40317242     8.68503800    90.000000  90.000000 120.000000
 *******************************************************************************
 ATOMS IN THE ASYMMETRIC UNIT   15 - ATOMS IN THE UNIT CELL:   15
     ATOM                 X/A                 Y/B                 Z/C    
 *******************************************************************************
      1 T   6 C     4.646067354860E-01  2.322978403741E-01  3.000038007397E-01
      2 T   6 C     4.524016720291E-01 -4.467617986737E-01  3.036289914797E-01
      3 T   6 C     4.524351706217E-01 -1.008222285635E-01  2.963655092350E-01
      4 T   6 C    -2.018655686464E-01  2.345357353226E-01  2.971253942248E-01
      5 T   6 C    -2.018848242167E-01 -4.364001016174E-01  3.028756675644E-01
      6 T   6 C    -2.077828084373E-01 -1.038862912315E-01  2.999971746953E-01
      7 T   6 C     2.406246225452E-01  1.203013795060E-01  2.999995034675E-01
      8 T   6 C     1.319961515167E-01  2.284664004223E-01  2.977741186550E-01
      9 T   6 C     1.319912989138E-01 -9.648540434484E-02  3.022268841696E-01
     10 T   6 C    -4.320175202734E-01  1.165199921961E-01  2.950186859764E-01
     11 T   6 C    -4.320322565538E-01  4.514579739214E-01  3.049839060256E-01
     12 T   6 C    -4.492546308774E-01 -2.246319223804E-01  2.999988271808E-01
     13 T   6 C    -9.007913600610E-02  1.217863746245E-01  2.990288010048E-01
     14 T   6 C    -1.023806406395E-01  4.488181871160E-01  3.000054547612E-01
     15 T   6 C    -9.009159879684E-02 -2.118628033390E-01  3.009672808204E-01

 T = ATOM BELONGING TO THE ASYMMETRIC UNIT
 *******************************************************************************
 * GEOMETRY EDITING - INPUT COORDINATES ARE GIVEN IN ANGSTROM         
 *******************************************************************************

 USE OF SYMMETRY WILL BE SUBSEQUENTLY SUSPENDED
 INFORMATION **** NEW DEFAULT **** FINALRUN 4 FOR GEOMETRY OPTIMIZATIONS
 INFORMATION **** NEW DEFAULT **** OPTGEOM OPTIMIZES BOTH ATOMIC COORDINATES AND CELL PARAMETERS
 INFORMATION **** NEW DEFAULT **** TOL. ON ATOMIC DISP TO REDEFINE REF. GEOMETRY: 0.8 Angs
 INFORMATION **** NEW DEFAULT **** N POINTS TO REDEFINE REF. GEOMETRY: N OF OPT DEGS OF FREEDOM
 INFORMATION **** NEW DEFAULT **** TOL. ON ENERGY TO REDEFINE REF. GEOMETRY: 10**-3*(5*N. ATOMS)
 INFORMATION **** ATOMONLY **** ONLY ATOMIC COORDINATES ARE OPTIMIZED
 INFORMATION **** MAXTRADIUS **** MAX ALLOWED TRUST RADIUS  2.000000E-01
 INFORMATION **** TRUSTRADIUS ****  INITIAL VALUE FOR TRUST RADIUS MODIFIED  2.500000E-01
 INFORMATION **** MAXCYCLE ****   MAXIMUM NUMBER OF OPTIMIZATION CYCLES         500

 IMPORTANT INFORMATION:
 THE COORDINATE SYSTEM ADOPTED IN THE OPTIMIZATION IS NOT IN
 GENERAL HOMOGENEOUS UNITS. FOR THIS REASON THE GRADIENT AND 
 HESSIAN MATRIX IN TERMS OF THIS SYSTEM ARE GIVEN WITHOUT
 UNITS. FOR MORE DETAILS SEE THE MANUAL.

 *******************************************************************************
 ATOMIC POSITIONS OPTIMIZATION CONTROL

 INITIAL TRUST RADIUS         0.25000 MAXIMUM TRUST RADIUS               0.20000
 MAXIMUM GRADIENT COMPONENT   0.00045 MAXIMUM DISPLACEMENT COMPONENT     0.00180
 R.M.S. OF GRADIENT COMPONENT 0.00030 R.M.S. OF DISPLACEMENT COMPONENTS  0.00120
 THRESHOLD ON ENERGY CHANGE 0.100E-06 EXTRAPOLATING POLYNOMIAL ORDER           2
 MAXIMUM ALLOWED NUMBER OF STEPS  500 SORTING OF ENERGY POINTS:               NO
 ANALYTICAL  GRADIENT                 HESSIAN UPDATING                      BFGS
 STEP SIZE NUMERICAL GRADIENT 0.00100
 INITIAL HESSIAN MATRIX: SCHLEGEL MODEL 2
 *******************************************************************************


 GCALCO - MAX INDICES DIRECT LATTICE VECTOR    16    16    12
 NO.OF VECTORS CREATED 6999 STARS  379 RMAX   166.99060 BOHR

 GEOMETRY FOR WAVE FUNCTION - DIMENSIONALITY OF THE SYSTEM    3
 (NON PERIODIC DIRECTION: LATTICE PARAMETER FORMALLY SET TO 500)
 *******************************************************************************
 LATTICE PARAMETERS (ANGSTROMS AND DEGREES) - BOHR = 0.5291772083 ANGSTROM
 PRIMITIVE CELL - CENTRING CODE 1/0 VOLUME=   412.228566 - DENSITY  0.725 g/cm^3
         A              B              C           ALPHA      BETA       GAMMA 
     7.40317242     7.40317242     8.68503800    90.000000  90.000000 120.000000
 *******************************************************************************
 ATOMS IN THE ASYMMETRIC UNIT   15 - ATOMS IN THE UNIT CELL:   15
     ATOM                 X/A                 Y/B                 Z/C    
 *******************************************************************************
      1 T   6 C     4.646067354860E-01  2.322978403741E-01  3.000038007397E-01
      2 T   6 C     4.524016720291E-01 -4.467617986737E-01  3.036289914797E-01
      3 T   6 C     4.524351706217E-01 -1.008222285635E-01  2.963655092350E-01
      4 T   6 C    -2.018655686464E-01  2.345357353226E-01  2.971253942248E-01
      5 T   6 C    -2.018848242167E-01 -4.364001016174E-01  3.028756675644E-01
      6 T   6 C    -2.077828084373E-01 -1.038862912315E-01  2.999971746953E-01
      7 T   6 C     2.406246225452E-01  1.203013795060E-01  2.999995034675E-01
      8 T   6 C     1.319961515167E-01  2.284664004223E-01  2.977741186550E-01
      9 T   6 C     1.319912989138E-01 -9.648540434484E-02  3.022268841696E-01
     10 T   6 C    -4.320175202734E-01  1.165199921961E-01  2.950186859764E-01
     11 T   6 C    -4.320322565538E-01  4.514579739214E-01  3.049839060256E-01
     12 T   6 C    -4.492546308774E-01 -2.246319223804E-01  2.999988271808E-01
     13 T   6 C    -9.007913600610E-02  1.217863746245E-01  2.990288010048E-01
     14 T   6 C    -1.023806406395E-01  4.488181871160E-01  3.000054547612E-01
     15 T   6 C    -9.009159879684E-02 -2.118628033390E-01  3.009672808204E-01

 T = ATOM BELONGING TO THE ASYMMETRIC UNIT

 ****    1 SYMMOPS - TRANSLATORS IN FRACTIONAL UNITS
 **** MATRICES AND TRANSLATORS IN THE CRYSTALLOGRAPHIC REFERENCE FRAME
   V INV                    ROTATION MATRICES                   TRANSLATORS
   1   1  1.00  0.00  0.00  0.00  1.00  0.00  0.00  0.00  1.00  0.00  0.00  0.00

 DIRECT LATTICE VECTORS CARTESIAN COMPONENTS (ANGSTROM)
          X                    Y                    Z
   0.370158621205E+01  -0.641133538787E+01   0.000000000000E+00
   0.370158621205E+01   0.641133538787E+01   0.000000000000E+00
   0.000000000000E+00   0.000000000000E+00   0.868503800000E+01


 CARTESIAN COORDINATES - PRIMITIVE CELL
 *******************************************************************************
 *      ATOM          X(ANGSTROM)         Y(ANGSTROM)         Z(ANGSTROM)
 *******************************************************************************
    1     6 C     2.579652369118E+00 -1.489410240148E+00  2.605544409569E+00
    2     6 C     3.722462689500E+00  6.464968086730E-01  2.637029328903E+00
    3     6 C     5.003111830351E+00  2.864216645873E+00  2.573945709595E+00
    4     6 C     3.822517650564E+00 -3.613420264421E+00  2.580545339607E+00
    5     6 C     5.040505743273E+00 -1.503556096995E+00  2.630486682072E+00
    6     6 C     6.249502382044E+00  6.661154174380E-01  2.605486862121E+00
    7     6 C     1.335998712763E+00 -7.714326660800E-01  2.605507087596E+00
    8     6 C     1.334283212218E+00  6.185031206850E-01  2.586179535935E+00
    9     6 C     3.833014341833E+00  4.946494614964E+00  2.624851973635E+00
   10     6 C     2.533744912183E+00 -2.894477422600E+00  2.562248498415E+00
   11     6 C     3.773492179617E+00 -7.469832083870E-01  2.648796813221E+00
   12     6 C     4.908723250075E+00  1.440131519906E+00  2.605501214021E+00
   13     6 C     3.818953289342E+00 -5.052994542095E+00  2.597076499821E+00
   14     6 C     4.983954657424E+00 -2.877414837729E+00  2.605558774808E+00
   15     6 C     6.285462172486E+00 -7.807160329050E-01  2.613912270682E+00

 *******************************************************************************
 LOCAL ATOMIC FUNCTIONS BASIS SET
 *******************************************************************************
   ATOM   X(AU)   Y(AU)   Z(AU)  N. TYPE  EXPONENT  S COEF   P COEF   D/F/G COEF
 *******************************************************************************
   1 C    4.875  -2.815   4.924
                                  1 S  
                                         1.358E+04 2.225E-04 0.000E+00 0.000E+00
                                         2.035E+03 1.723E-03 0.000E+00 0.000E+00
                                         4.632E+02 8.926E-03 0.000E+00 0.000E+00
                                         1.312E+02 3.573E-02 0.000E+00 0.000E+00
                                         4.285E+01 1.108E-01 0.000E+00 0.000E+00
                                         1.558E+01 2.430E-01 0.000E+00 0.000E+00
                                  2 S  
                                         6.207E+00 4.144E-01 0.000E+00 0.000E+00
                                         2.576E+00 2.374E-01 0.000E+00 0.000E+00
                                  3 S  
                                         4.941E-01 1.000E+00 0.000E+00 0.000E+00
                                  4 S  
                                         1.644E-01 1.000E+00 0.000E+00 0.000E+00
                           5-     7 P  
                                         3.470E+01 0.000E+00 5.333E-03 0.000E+00
                                         7.958E+00 0.000E+00 3.586E-02 0.000E+00
                                         2.378E+00 0.000E+00 1.422E-01 0.000E+00
                                         8.143E-01 0.000E+00 3.427E-01 0.000E+00
                           8-    10 P  
                                         5.662E-01 0.000E+00 1.000E+00 0.000E+00
                          11-    13 P  
                                         1.974E-01 0.000E+00 1.000E+00 0.000E+00
                          14-    18 D  
                                         5.792E-01 0.000E+00 0.000E+00 1.000E+00
   2 C    7.034   1.222   4.983
   3 C    9.455   5.413   4.864
   4 C    7.224  -6.828   4.877
   5 C    9.525  -2.841   4.971
   6 C   11.810   1.259   4.924
   7 C    2.525  -1.458   4.924
   8 C    2.521   1.169   4.887
   9 C    7.243   9.348   4.960
  10 C    4.788  -5.470   4.842
  11 C    7.131  -1.412   5.006
  12 C    9.276   2.721   4.924
  13 C    7.217  -9.549   4.908
  14 C    9.418  -5.438   4.924
  15 C   11.878  -1.475   4.940
 INFORMATION **** SET_MPP **** PCRYSTAL CALCULATION
 INFORMATION **** READM2 **** NEW DEFAULT: FOCK/KS MATRIX MIXING SET TO 30 %
 INFORMATION **** READM2 **** NEW DEFAULT: FULL DIRECT SCF MODE
 INFORMATION **** READM2 **** NEW DEFAULT: COULOMB BIPOLAR BUFFER SET TO 32 Mb
 INFORMATION **** READM2 **** NEW DEFAULT: EXCHANGE BIPOLAR BUFFER SET TO 32 Mb

 *******************************************************************************
 NEW DEFAULT: DFT INTEGRATION GRID INCREASED TO XLGRID
 NEW DEFAULT: DIIS ACCELERATOR ACTIVE
 USE KEYWORD NODIIS TO TURN IT OFF
 *******************************************************************************

 INFORMATION **** TOLINTEG **** COULOMB AND EXCHANGE SERIES TOLERANCES MODIFIED
 INFORMATION **** READM2 **** FULL DIRECT SCF (MONO AND BIEL INT) SELECTED
 INFORMATION **** MAXCYCLE **** MAX NUMBER OF SCF CYCLES SET TO         200
 INFORMATION **** TOLDEE **** SCF TOL ON TOTAL ENERGY SET TO           9
 *******************************************************************************
 N. OF ATOMS PER CELL        15  COULOMB OVERLAP TOL         (T1) 10**   -8
 NUMBER OF SHELLS           120  COULOMB PENETRATION TOL     (T2) 10**   -8
 NUMBER OF AO               270  EXCHANGE OVERLAP TOL        (T3) 10**   20
 N. OF ELECTRONS PER CELL    90  EXCHANGE PSEUDO OVP (F(G))  (T4) 10**   20
 CORE ELECTRONS PER CELL     30  EXCHANGE PSEUDO OVP (P(G))  (T5) 10**   20
 N. OF SYMMETRY OPERATORS     1  POLE ORDER IN MONO ZONE                  4
 *******************************************************************************
 TYPE OF CALCULATION :  RESTRICTED CLOSED SHELL
 KOHN-SHAM HAMILTONIAN

 (EXCHANGE)[CORRELATION] FUNCTIONAL:(PERDEW-BURKE-ERNZERHOF)[PERDEW-BURKE-ERNZERHOF]


 CAPPA:IS1  8;IS2  8;IS3  8; K PTS MONK NET 260; SYMMOPS:K SPACE   2;G SPACE   1

 *******************************************************************************
 MAX NUMBER OF SCF CYCLES     200  CONVERGENCE ON DELTAP        10**-19
 WEIGHT OF F(I) IN F(I+1)      30% CONVERGENCE ON ENERGY        10**- 9
 SHRINK. FACT.(MONKH.)    8  8  8  NUMBER OF K POINTS IN THE IBZ    260
 SHRINKING FACTOR(GILAT NET)   16  NUMBER OF K POINTS(GILAT NET)   2052
 *******************************************************************************
 *** K POINTS COORDINATES (OBLIQUE COORDINATES IN UNITS OF IS =  8)
   1-R(  0  0  0)   2-C(  1  0  0)   3-C(  2  0  0)   4-C(  3  0  0)
   5-R(  4  0  0)   6-C(  0  1  0)   7-C(  1  1  0)   8-C(  2  1  0)
   9-C(  3  1  0)  10-C(  4  1  0)  11-C(  5  1  0)  12-C(  6  1  0)
  13-C(  7  1  0)  14-C(  0  2  0)  15-C(  1  2  0)  16-C(  2  2  0)
  17-C(  3  2  0)  18-C(  4  2  0)  19-C(  5  2  0)  20-C(  6  2  0)
  21-C(  7  2  0)  22-C(  0  3  0)  23-C(  1  3  0)  24-C(  2  3  0)
  25-C(  3  3  0)  26-C(  4  3  0)  27-C(  5  3  0)  28-C(  6  3  0)
  29-C(  7  3  0)  30-R(  0  4  0)  31-C(  1  4  0)  32-C(  2  4  0)
  33-C(  3  4  0)  34-R(  4  4  0)  35-C(  0  0  1)  36-C(  1  0  1)
  37-C(  2  0  1)  38-C(  3  0  1)  39-C(  4  0  1)  40-C(  5  0  1)
  41-C(  6  0  1)  42-C(  7  0  1)  43-C(  0  1  1)  44-C(  1  1  1)
  45-C(  2  1  1)  46-C(  3  1  1)  47-C(  4  1  1)  48-C(  5  1  1)
  49-C(  6  1  1)  50-C(  7  1  1)  51-C(  0  2  1)  52-C(  1  2  1)
  53-C(  2  2  1)  54-C(  3  2  1)  55-C(  4  2  1)  56-C(  5  2  1)
  57-C(  6  2  1)  58-C(  7  2  1)  59-C(  0  3  1)  60-C(  1  3  1)
  61-C(  2  3  1)  62-C(  3  3  1)  63-C(  4  3  1)  64-C(  5  3  1)
  65-C(  6  3  1)  66-C(  7  3  1)  67-C(  0  4  1)  68-C(  1  4  1)
  69-C(  2  4  1)  70-C(  3  4  1)  71-C(  4  4  1)  72-C(  5  4  1)
  73-C(  6  4  1)  74-C(  7  4  1)  75-C(  0  5  1)  76-C(  1  5  1)
  77-C(  2  5  1)  78-C(  3  5  1)  79-C(  4  5  1)  80-C(  5  5  1)
  81-C(  6  5  1)  82-C(  7  5  1)  83-C(  0  6  1)  84-C(  1  6  1)
  85-C(  2  6  1)  86-C(  3  6  1)  87-C(  4  6  1)  88-C(  5  6  1)
  89-C(  6  6  1)  90-C(  7  6  1)  91-C(  0  7  1)  92-C(  1  7  1)
  93-C(  2  7  1)  94-C(  3  7  1)  95-C(  4  7  1)  96-C(  5  7  1)
  97-C(  6  7  1)  98-C(  7  7  1)  99-C(  0  0  2) 100-C(  1  0  2)
 101-C(  2  0  2) 102-C(  3  0  2) 103-C(  4  0  2) 104-C(  5  0  2)
 105-C(  6  0  2) 106-C(  7  0  2) 107-C(  0  1  2) 108-C(  1  1  2)
 109-C(  2  1  2) 110-C(  3  1  2) 111-C(  4  1  2) 112-C(  5  1  2)
 113-C(  6  1  2) 114-C(  7  1  2) 115-C(  0  2  2) 116-C(  1  2  2)
 117-C(  2  2  2) 118-C(  3  2  2) 119-C(  4  2  2) 120-C(  5  2  2)
 121-C(  6  2  2) 122-C(  7  2  2) 123-C(  0  3  2) 124-C(  1  3  2)
 125-C(  2  3  2) 126-C(  3  3  2) 127-C(  4  3  2) 128-C(  5  3  2)
 129-C(  6  3  2) 130-C(  7  3  2) 131-C(  0  4  2) 132-C(  1  4  2)
 133-C(  2  4  2) 134-C(  3  4  2) 135-C(  4  4  2) 136-C(  5  4  2)
 137-C(  6  4  2) 138-C(  7  4  2) 139-C(  0  5  2) 140-C(  1  5  2)
 141-C(  2  5  2) 142-C(  3  5  2) 143-C(  4  5  2) 144-C(  5  5  2)
 145-C(  6  5  2) 146-C(  7  5  2) 147-C(  0  6  2) 148-C(  1  6  2)
 149-C(  2  6  2) 150-C(  3  6  2) 151-C(  4  6  2) 152-C(  5  6  2)
 153-C(  6  6  2) 154-C(  7  6  2) 155-C(  0  7  2) 156-C(  1  7  2)
 157-C(  2  7  2) 158-C(  3  7  2) 159-C(  4  7  2) 160-C(  5  7  2)
 161-C(  6  7  2) 162-C(  7  7  2) 163-C(  0  0  3) 164-C(  1  0  3)
 165-C(  2  0  3) 166-C(  3  0  3) 167-C(  4  0  3) 168-C(  5  0  3)
 169-C(  6  0  3) 170-C(  7  0  3) 171-C(  0  1  3) 172-C(  1  1  3)
 173-C(  2  1  3) 174-C(  3  1  3) 175-C(  4  1  3) 176-C(  5  1  3)
 177-C(  6  1  3) 178-C(  7  1  3) 179-C(  0  2  3) 180-C(  1  2  3)
 181-C(  2  2  3) 182-C(  3  2  3) 183-C(  4  2  3) 184-C(  5  2  3)
 185-C(  6  2  3) 186-C(  7  2  3) 187-C(  0  3  3) 188-C(  1  3  3)
 189-C(  2  3  3) 190-C(  3  3  3) 191-C(  4  3  3) 192-C(  5  3  3)
 193-C(  6  3  3) 194-C(  7  3  3) 195-C(  0  4  3) 196-C(  1  4  3)
 197-C(  2  4  3) 198-C(  3  4  3) 199-C(  4  4  3) 200-C(  5  4  3)
 201-C(  6  4  3) 202-C(  7  4  3) 203-C(  0  5  3) 204-C(  1  5  3)
 205-C(  2  5  3) 206-C(  3  5  3) 207-C(  4  5  3) 208-C(  5  5  3)
 209-C(  6  5  3) 210-C(  7  5  3) 211-C(  0  6  3) 212-C(  1  6  3)
 213-C(  2  6  3) 214-C(  3  6  3) 215-C(  4  6  3) 216-C(  5  6  3)
 217-C(  6  6  3) 218-C(  7  6  3) 219-C(  0  7  3) 220-C(  1  7  3)
 221-C(  2  7  3) 222-C(  3  7  3) 223-C(  4  7  3) 224-C(  5  7  3)
 225-C(  6  7  3) 226-C(  7  7  3) 227-R(  0  0  4) 228-C(  1  0  4)
 229-C(  2  0  4) 230-C(  3  0  4) 231-R(  4  0  4) 232-C(  0  1  4)
 233-C(  1  1  4) 234-C(  2  1  4) 235-C(  3  1  4) 236-C(  4  1  4)
 237-C(  5  1  4) 238-C(  6  1  4) 239-C(  7  1  4) 240-C(  0  2  4)
 241-C(  1  2  4) 242-C(  2  2  4) 243-C(  3  2  4) 244-C(  4  2  4)
 245-C(  5  2  4) 246-C(  6  2  4) 247-C(  7  2  4) 248-C(  0  3  4)
 249-C(  1  3  4) 250-C(  2  3  4) 251-C(  3  3  4) 252-C(  4  3  4)
 253-C(  5  3  4) 254-C(  6  3  4) 255-C(  7  3  4) 256-R(  0  4  4)
 257-C(  1  4  4) 258-C(  2  4  4) 259-C(  3  4  4) 260-R(  4  4  4)

 DIRECT LATTICE VECTORS COMPON. (A.U.)     RECIP. LATTICE VECTORS COMPON. (A.U.) 
        X            Y            Z              X            Y            Z
    6.9949842  -12.1156680    0.0000000      0.4491208   -0.2593000    0.0000000
    6.9949842   12.1156680    0.0000000      0.4491208    0.2593000   -0.0000000
    0.0000000    0.0000000   16.4123433     -0.0000000    0.0000000    0.3828329

 DISK SPACE FOR EIGENVECTORS (FTN 10)    37324800 REALS

 SYMMETRY ADAPTION OF THE BLOCH FUNCTIONS DISABLED
 TTTTTTTTTTTTTTTTTTTTTTTTTTTTTT gordsh1     TELAPSE        2.76 TCPU        1.81

 MATRIX SIZE: P(G)  110942, F(G)   55651, P(G) IRR   55936, F(G) IRR   55936
 MAX G-VECTOR INDEX FOR 1- AND 2-ELECTRON INTEGRALS  33

 TTTTTTTTTTTTTTTTTTTTTTTTTTTTTT INPUT       TELAPSE        2.77 TCPU        1.81

 NEIGHBORS OF THE NON-EQUIVALENT ATOMS

 N = NUMBER OF NEIGHBORS AT DISTANCE R
    ATOM  N     R/ANG      R/AU   NEIGHBORS (ATOM LABELS AND CELL INDICES)
   1 C    1     1.4065     2.6579   10 C    0 0 0
   1 C    1     1.4065     2.6580   11 C    0 0 0
   1 C    1     1.4360     2.7137    7 C    0 0 0
   1 C    1     2.4226     4.5780    3 C    0-1 0
   1 C    1     2.4226     4.5781    2 C    0 0 0
   1 C    1     2.4484     4.6268    8 C    0 0 0

   2 C    1     1.3945     2.6352   11 C    0 0 0
   2 C    1     1.4276     2.6978   12 C    0 0 0
   2 C    1     2.3889     4.5143    8 C    0 0 0
   2 C    1     2.4226     4.5781    1 C    0 0 0
   2 C    1     2.5219     4.7657    5 C    0 0 0
   2 C    1     2.5273     4.7759    6 C    0 0 0

   3 C    1     1.3944     2.6351   10 C    0 1 0
   3 C    1     1.4276     2.6977   12 C    0 0 0
   3 C    1     2.3891     4.5147    9 C    0 0 0
   3 C    1     2.4226     4.5780    1 C    0 1 0
   3 C    1     2.5219     4.7656    4 C    0 1 0
   3 C    1     2.5271     4.7755    6 C    0 0 0

   4 C    1     1.3752     2.5988   14 C    0 0 0
   4 C    1     1.4397     2.7206   13 C    0 0 0
   4 C    1     1.4759     2.7890   10 C    0 0 0
   4 C    1     2.4367     4.6047    5 C    0 0 0
   4 C    1     2.4610     4.6507    1 C    0 0 0
   4 C    1     2.4839     4.6939    6 C    0-1 0

   5 C    1     1.3752     2.5988   14 C    0 0 0
   5 C    1     1.4397     2.7206   15 C    0 0 0
   5 C    1     1.4758     2.7889   11 C    0 0 0
   5 C    1     2.4367     4.6047    4 C    0 0 0
   5 C    1     2.4610     4.6507    1 C    0 0 0
   5 C    1     2.4839     4.6939    6 C    0 0 0

   6 C    1     1.4473     2.7350   15 C    0 0 0
   6 C    1     1.4473     2.7351   13 C    0 1 0
   6 C    1     1.5482     2.9256   12 C    0 0 0
   6 C    1     2.4839     4.6939    5 C    0 0 0
   6 C    1     2.4839     4.6939    4 C    0 1 0
   6 C    1     2.4885     4.7026    8 C    1 1 0

   7 C    1     1.3900     2.6268    9 C    0-1 0
   7 C    1     1.3901     2.6269    8 C    0 0 0
   7 C    1     1.4360     2.7137    1 C    0 0 0
   7 C    1     2.4380     4.6071   10 C    0 0 0
   7 C    1     2.4380     4.6072   11 C    0 0 0
   7 C    1     2.4537     4.6369   15 C   -1-1 0

   8 C    1     1.3901     2.6269    7 C    0 0 0
   8 C    1     1.4242     2.6914   13 C   -1 0 0
   8 C    1     2.3889     4.5143    2 C    0 0 0
   8 C    1     2.4060     4.5466    9 C    0-1 0
   8 C    1     2.4484     4.6268    1 C    0 0 0
   8 C    1     2.4885     4.7026    6 C   -1-1 0

   9 C    1     1.3900     2.6268    7 C    0 1 0
   9 C    1     1.4243     2.6914   15 C   -1 0 0
   9 C    1     2.3891     4.5147    3 C    0 0 0
   9 C    1     2.4060     4.5466    8 C    0 1 0
   9 C    1     2.4484     4.6269    1 C    0 1 0
   9 C    1     2.4885     4.7027    6 C   -1 0 0

  10 C    1     1.3944     2.6351    3 C    0-1 0
  10 C    1     1.4065     2.6579    1 C    0 0 0
  10 C    1     1.4759     2.7890    4 C    0 0 0
  10 C    1     2.4380     4.6071    7 C    0 0 0
  10 C    1     2.4507     4.6311   14 C    0 0 0
  10 C    1     2.4647     4.6575   12 C    0-1 0

  11 C    1     1.3945     2.6352    2 C    0 0 0
  11 C    1     1.4065     2.6580    1 C    0 0 0
  11 C    1     1.4758     2.7889    5 C    0 0 0
  11 C    1     2.4380     4.6072    7 C    0 0 0
  11 C    1     2.4507     4.6311   14 C    0 0 0
  11 C    1     2.4646     4.6574   12 C    0 0 0

  12 C    1     1.4276     2.6977    3 C    0 0 0
  12 C    1     1.4276     2.6978    2 C    0 0 0
  12 C    1     1.5482     2.9256    6 C    0 0 0
  12 C    1     2.4646     4.6574   11 C    0 0 0
  12 C    1     2.4647     4.6575   10 C    0 1 0
  12 C    1     2.6130     4.9378   15 C    0 0 0

  13 C    1     1.4242     2.6914    8 C    1 0 0
  13 C    1     1.4397     2.7206    4 C    0 0 0
  13 C    1     1.4473     2.7351    6 C    0-1 0
  13 C    1     2.4538     4.6370    7 C    1 0 0
  13 C    1     2.4679     4.6636   14 C    0 0 0
  13 C    1     2.4701     4.6678   15 C    0-1 0

  14 C    1     1.3752     2.5988    4 C    0 0 0
  14 C    1     1.3752     2.5988    5 C    0 0 0
  14 C    1     2.4507     4.6311   10 C    0 0 0
  14 C    1     2.4507     4.6311   11 C    0 0 0
  14 C    1     2.4678     4.6635   15 C    0 0 0
  14 C    1     2.4679     4.6636   13 C    0 0 0

  15 C    1     1.4243     2.6914    9 C    1 0 0
  15 C    1     1.4397     2.7206    5 C    0 0 0
  15 C    1     1.4473     2.7350    6 C    0 0 0
  15 C    1     2.4537     4.6369    7 C    1 1 0
  15 C    1     2.4678     4.6635   14 C    0 0 0
  15 C    1     2.4701     4.6678   13 C    0 1 0


 SYMMETRY ALLOWED INTERNAL DEGREE(S) OF FREEDOM:  42
 TTTTTTTTTTTTTTTTTTTTTTTTTTTTTT SYMM        TELAPSE        2.77 TCPU        1.81
 TTTTTTTTTTTTTTTTTTTTTTTTTTTTTT INT_SCREEN  TELAPSE        2.77 TCPU        1.82

 *******************************************************************************
 *                             OPTIMIZATION STARTS                             *
 *******************************************************************************
 RECLASIFICATION OF INDICES FOR INTEGRAL CALC ACCORDING TO DIFFERENT CRITERIA:
           FIXDELTE                  FIXDELTX              FIXDELTN
          0.10000000               0.80000000                 42
 *******************************************************************************

 *******************************************************************************
 COORDINATE OPTIMIZATION - POINT    1
 INFORMATION **** EXCBUF **** EXCH. BIPO BUFFER: WORDS USED =           0

 DFT PARAMETERS

     ATOM       ELECTRONS   NET CHARGE   R(ANGSTROM)
   1   6  C       6.0000      0.0000     0.77000000

 SIZE OF GRID=     501478
 TTTTTTTTTTTTTTTTTTTTTTTTTTTTTT MAKE_GRID2  TELAPSE        3.13 TCPU        2.17
 BECKE WEIGHT FUNCTION
 RADSAFE =     2.00
 TOLERANCES - DENSITY:10**- 6; POTENTIAL:10**- 9; GRID WGT:10**-14

 RADIAL INTEGRATION  - INTERVALS (POINTS,UPPER LIMIT):            1( 75,  4.0*R)

 ANGULAR INTEGRATION - INTERVALS (ACCURACY LEVEL [N. POINTS] UPPER LIMIT):
  1(  4[  86]   0.2)  2(  8[ 194]   0.5)  3( 12[ 350]   0.9)  4( 16[ 974]   3.5)
  5( 12[ 350]9999.0)
 TTTTTTTTTTTTTTTTTTTTTTTTTTTTTT INT_CALC    TELAPSE        3.15 TCPU        2.19

 *******************************************************************************
 Final                                                                           
 CRYSTAL - SCF - TYPE OF CALCULATION :  RESTRICTED CLOSED SHELL
 *******************************************************************************

 CAPPA:IS1  8;IS2  8;IS3  8; K PTS MONK NET 260; SYMMOPS:K SPACE   2;G SPACE   1

 TTTTTTTTTTTTTTTTTTTTTTTTTTTTTT SDIK        TELAPSE        3.21 TCPU        2.25

 AAAAAAAAAAAAAAAAAAAAAAAAAAAAAAAAAAAAAAAAAAAAAAAAAAAAAAAAAAAAAAAAAAAAAAAAAAAAAAA
         ATOMIC WAVEFUNCTION(S)


 NUCLEAR CHARGE  6.0  SYMMETRY SPECIES            S    P
 N. ELECTRONS    6.0  NUMBER OF PRIMITIVE GTOS   10    6
                      NUMBER OF CONTRACTED GTOS   4    3
                      NUMBER OF CLOSED SHELLS     2    0
                      OPEN SHELL OCCUPATION       0    2

  ZNUC SCFIT  TOTAL HF ENERGY   KINETIC ENERGY   VIRIAL THEOREM ACCURACY
   6.0  10   -3.768111494E+01  3.771190961E+01 -1.999183423E+00  3.4E-06

 AAAAAAAAAAAAAAAAAAAAAAAAAAAAAAAAAAAAAAAAAAAAAAAAAAAAAAAAAAAAAAAAAAAAAAAAAAAAAAA

 CHARGE NORMALIZATION FACTOR   1.00000000
 TOTAL ATOMIC CHARGES:
   6.0000000   6.0000000   6.0000000   6.0000000   6.0000000   6.0000000
   6.0000000   6.0000000   6.0000000   6.0000000   6.0000000   6.0000000
   6.0000000   6.0000000   6.0000000
 TTTTTTTTTTTTTTTTTTTTTTTTTTTTTT MOQGAD      TELAPSE        3.22 TCPU        2.26
 TTTTTTTTTTTTTTTTTTTTTTTTTTTTTT SHELLXN     TELAPSE        3.78 TCPU        2.82
 TTTTTTTTTTTTTTTTTTTTTTTTTTTTTT MONMO3      TELAPSE        3.95 TCPU        2.99
 NUMERICALLY INTEGRATED DENSITY     89.9998335074
 TTTTTTTTTTTTTTTTTTTTTTTTTTTTTT NUMDFT      TELAPSE        4.11 TCPU        3.15
 CYC   0 ETOT(AU) -5.743227366672E+02 DETOT -5.74E+02 tst  0.00E+00 PX  1.00E+00
 TTTTTTTTTTTTTTTTTTTTTTTTTTTTTT DIIS        TELAPSE        4.12 TCPU        3.16
 TTTTTTTTTTTTTTTTTTTTTTTTTTTTTT FDIK        TELAPSE        4.30 TCPU        3.34
 INSULATING STATE
 TOP OF VALENCE BANDS -    BAND     45; K   17; EIG -2.6157024E-01 AU
 TOP OF VALENCE BANDS -    BAND     45; K    1; EIG -2.6928686E-01 AU
 BOTTOM OF VIRTUAL BANDS - BAND     46; K   39; EIG -2.3425637E-01 AU
 INDIRECT ENERGY BAND GAP:   0.7432 eV
 BOTTOM OF VIRTUAL BANDS - BAND     46; K    1; EIG -2.1316349E-01 AU
 TTTTTTTTTTTTTTTTTTTTTTTTTTTTTT PDIG        TELAPSE        4.35 TCPU        3.38
 CHARGE NORMALIZATION FACTOR   1.00000000
 TOTAL ATOMIC CHARGES:
   5.9351375   5.7114409   5.7113899   6.0129961   6.0130415   5.8752519
   6.1699901   5.8326488   5.8328167   6.0893018   6.0892741   6.0382732
   6.0762590   6.5359298   6.0762487
 TTTTTTTTTTTTTTTTTTTTTTTTTTTTTT MOQGAD      TELAPSE        4.35 TCPU        3.38
 TTTTTTTTTTTTTTTTTTTTTTTTTTTTTT SHELLXN     TELAPSE        5.00 TCPU        4.04
 TTTTTTTTTTTTTTTTTTTTTTTTTTTTTT MONMO3      TELAPSE        5.19 TCPU        4.22
 NUMERICALLY INTEGRATED DENSITY     89.9998787705
 TTTTTTTTTTTTTTTTTTTTTTTTTTTTTT NUMDFT      TELAPSE        5.57 TCPU        4.60
 CYC   1 ETOT(AU) -5.705637349881E+02 DETOT  3.76E+00 tst  0.00E+00 PX  1.00E+00
 TTTTTTTTTTTTTTTTTTTTTTTTTTTTTT DIIS        TELAPSE        5.58 TCPU        4.62
 DIIS TEST: 0.10545E+01 AT SCF   CYCLE   1 - MIX   30 %
 TTTTTTTTTTTTTTTTTTTTTTTTTTTTTT FDIK        TELAPSE        5.74 TCPU        4.78
 POSSIBLY CONDUCTING STATE - EFERMI(AU) -1.8159705E-01 (RES. CHARGE  4.15E-10;IT. 12)
 TTTTTTTTTTTTTTTTTTTTTTTTTTTTTT PDIG        TELAPSE        5.84 TCPU        4.87
 CHARGE NORMALIZATION FACTOR   1.00000000
 TOTAL ATOMIC CHARGES:
   6.2304457   6.7641583   6.7648195   5.8961058   5.8960832   6.3258609
   5.8293495   6.1954016   6.1968253   5.8842970   5.8842925   6.1783551
   5.8644590   4.2250451   5.8645014
 TTTTTTTTTTTTTTTTTTTTTTTTTTTTTT MOQGAD      TELAPSE        5.84 TCPU        4.88
 TTTTTTTTTTTTTTTTTTTTTTTTTTTTTT SHELLXN     TELAPSE        6.49 TCPU        5.53
 TTTTTTTTTTTTTTTTTTTTTTTTTTTTTT MONMO3      TELAPSE        6.68 TCPU        5.71
 NUMERICALLY INTEGRATED DENSITY     89.9998583140
 TTTTTTTTTTTTTTTTTTTTTTTTTTTTTT NUMDFT      TELAPSE        6.94 TCPU        5.97
 CYC   2 ETOT(AU) -5.696306611689E+02 DETOT  9.33E-01 tst  6.08E-02 PX  2.92E-01
 TTTTTTTTTTTTTTTTTTTTTTTTTTTTTT DIIS        TELAPSE        6.95 TCPU        5.98
 DIIS TEST: 0.75432E+01 AT SCF   CYCLE   2 - DIIS ACTIVE - HISTORY:     2 CYCLES
 TTTTTTTTTTTTTTTTTTTTTTTTTTTTTT FDIK        TELAPSE        7.13 TCPU        6.16
 POSSIBLY CONDUCTING STATE - EFERMI(AU) -1.4799307E-01 (RES. CHARGE  8.05E-10;IT. 10)
 TTTTTTTTTTTTTTTTTTTTTTTTTTTTTT PDIG        TELAPSE        7.22 TCPU        6.25
 CHARGE NORMALIZATION FACTOR   1.00000000
 TOTAL ATOMIC CHARGES:
   5.8489822   5.8230729   5.8217901   6.1680182   6.1680128   6.0568513
   5.8112555   6.2118830   6.2100351   5.9540000   5.9540585   5.9856245
   5.9710453   6.0445235   5.9708470
 TTTTTTTTTTTTTTTTTTTTTTTTTTTTTT MOQGAD      TELAPSE        7.22 TCPU        6.25
 TTTTTTTTTTTTTTTTTTTTTTTTTTTTTT SHELLXN     TELAPSE        7.87 TCPU        6.90
 TTTTTTTTTTTTTTTTTTTTTTTTTTTTTT MONMO3      TELAPSE        8.06 TCPU        7.09
 NUMERICALLY INTEGRATED DENSITY     89.9998428081
 TTTTTTTTTTTTTTTTTTTTTTTTTTTTTT NUMDFT      TELAPSE        8.32 TCPU        7.35
 CYC   3 ETOT(AU) -5.706780179466E+02 DETOT -1.05E+00 tst  1.14E-01 PX  4.47E-01
 TTTTTTTTTTTTTTTTTTTTTTTTTTTTTT DIIS        TELAPSE        8.46 TCPU        7.50
 DIIS TEST: 0.46246E+00 AT SCF   CYCLE   3 - DIIS ACTIVE - HISTORY:     3 CYCLES
 TTTTTTTTTTTTTTTTTTTTTTTTTTTTTT FDIK        TELAPSE        8.63 TCPU        7.66
 POSSIBLY CONDUCTING STATE - EFERMI(AU) -1.6682089E-01 (RES. CHARGE  1.24E-12;IT. 12)
 TTTTTTTTTTTTTTTTTTTTTTTTTTTTTT PDIG        TELAPSE        8.72 TCPU        7.74
 CHARGE NORMALIZATION FACTOR   1.00000000
 TOTAL ATOMIC CHARGES:
   6.2800813   6.2605326   6.2609907   5.9945412   5.9947286   6.0076625
   6.1206488   5.6384753   5.6398591   6.0723713   6.0719864   6.0863013
   5.9840586   5.6033869   5.9843754
 TTTTTTTTTTTTTTTTTTTTTTTTTTTTTT MOQGAD      TELAPSE        8.72 TCPU        7.74
 TTTTTTTTTTTTTTTTTTTTTTTTTTTTTT SHELLXN     TELAPSE        9.37 TCPU        8.40
 TTTTTTTTTTTTTTTTTTTTTTTTTTTTTT MONMO3      TELAPSE        9.56 TCPU        8.58
 NUMERICALLY INTEGRATED DENSITY     89.9998495292
 TTTTTTTTTTTTTTTTTTTTTTTTTTTTTT NUMDFT      TELAPSE        9.92 TCPU        8.94
 CYC   4 ETOT(AU) -5.705857029172E+02 DETOT  9.23E-02 tst  3.44E-03 PX  2.18E-01
 TTTTTTTTTTTTTTTTTTTTTTTTTTTTTT DIIS        TELAPSE        9.93 TCPU        8.96
 DIIS TEST: 0.11015E+01 AT SCF   CYCLE   4 - DIIS ACTIVE - HISTORY:     4 CYCLES
 TTTTTTTTTTTTTTTTTTTTTTTTTTTTTT FDIK        TELAPSE       10.10 TCPU        9.12
 INSULATING STATE
 TOP OF VALENCE BANDS -    BAND     45; K   73; EIG -1.8136780E-01 AU
 TOP OF VALENCE BANDS -    BAND     45; K    1; EIG -1.9026510E-01 AU
 BOTTOM OF VIRTUAL BANDS - BAND     46; K   30; EIG -1.7540631E-01 AU
 INDIRECT ENERGY BAND GAP:   0.1622 eV
 BOTTOM OF VIRTUAL BANDS - BAND     46; K    1; EIG -1.5016703E-01 AU
 TTTTTTTTTTTTTTTTTTTTTTTTTTTTTT PDIG        TELAPSE       10.14 TCPU        9.17
 CHARGE NORMALIZATION FACTOR   1.00000000
 TOTAL ATOMIC CHARGES:
   5.9123132   5.8432772   5.8448724   5.9363689   5.9365621   5.9765867
   6.0931772   6.0521846   6.0540970   6.0179095   6.0179355   6.0629878
   6.0181763   6.2151705   6.0183811
 TTTTTTTTTTTTTTTTTTTTTTTTTTTTTT MOQGAD      TELAPSE       10.15 TCPU        9.17
 TTTTTTTTTTTTTTTTTTTTTTTTTTTTTT SHELLXN     TELAPSE       10.80 TCPU        9.82
 TTTTTTTTTTTTTTTTTTTTTTTTTTTTTT MONMO3      TELAPSE       10.99 TCPU       10.01
 NUMERICALLY INTEGRATED DENSITY     89.9998549922
 TTTTTTTTTTTTTTTTTTTTTTTTTTTTTT NUMDFT      TELAPSE       11.24 TCPU       10.27
 CYC   5 ETOT(AU) -5.707207834824E+02 DETOT -1.35E-01 tst  5.70E-03 PX  1.36E-01
 TTTTTTTTTTTTTTTTTTTTTTTTTTTTTT DIIS        TELAPSE       11.26 TCPU       10.28
 DIIS TEST: 0.15797E+00 AT SCF   CYCLE   5 - DIIS ACTIVE - HISTORY:     5 CYCLES
 TTTTTTTTTTTTTTTTTTTTTTTTTTTTTT FDIK        TELAPSE       11.44 TCPU       10.46
 INSULATING STATE
 TOP OF VALENCE BANDS -    BAND     45; K   73; EIG -1.7994714E-01 AU
 TOP OF VALENCE BANDS -    BAND     45; K    1; EIG -1.8941165E-01 AU
 BOTTOM OF VIRTUAL BANDS - BAND     46; K   71; EIG -1.7724754E-01 AU
 INDIRECT ENERGY BAND GAP:   0.0735 eV
 BOTTOM OF VIRTUAL BANDS - BAND     46; K    1; EIG -1.5307844E-01 AU
 TTTTTTTTTTTTTTTTTTTTTTTTTTTTTT PDIG        TELAPSE       11.49 TCPU       10.51
 CHARGE NORMALIZATION FACTOR   1.00000000
 TOTAL ATOMIC CHARGES:
   5.9171050   5.8786916   5.8778991   6.0202394   6.0201275   6.0002340
   6.0333440   5.9837795   5.9824315   6.0289919   6.0291996   6.0567325
   6.0225723   6.1262826   6.0223693
 TTTTTTTTTTTTTTTTTTTTTTTTTTTTTT MOQGAD      TELAPSE       11.49 TCPU       10.51
 TTTTTTTTTTTTTTTTTTTTTTTTTTTTTT SHELLXN     TELAPSE       12.15 TCPU       11.16
 TTTTTTTTTTTTTTTTTTTTTTTTTTTTTT MONMO3      TELAPSE       12.34 TCPU       11.35
 NUMERICALLY INTEGRATED DENSITY     89.9998557306
 TTTTTTTTTTTTTTTTTTTTTTTTTTTTTT NUMDFT      TELAPSE       12.71 TCPU       11.73
 CYC   6 ETOT(AU) -5.707345148712E+02 DETOT -1.37E-02 tst  2.23E-04 PX  1.20E-02
 TTTTTTTTTTTTTTTTTTTTTTTTTTTTTT DIIS        TELAPSE       12.73 TCPU       11.74
 DIIS TEST: 0.33449E-01 AT SCF   CYCLE   6 - DIIS ACTIVE - HISTORY:     6 CYCLES
 TTTTTTTTTTTTTTTTTTTTTTTTTTTTTT FDIK        TELAPSE       12.89 TCPU       11.90
 POSSIBLY CONDUCTING STATE - EFERMI(AU) -1.7839682E-01 (RES. CHARGE  4.69E-12;IT. 10)
 TTTTTTTTTTTTTTTTTTTTTTTTTTTTTT PDIG        TELAPSE       12.98 TCPU       11.99
 CHARGE NORMALIZATION FACTOR   1.00000000
 TOTAL ATOMIC CHARGES:
   6.0206750   5.9172685   5.9191776   6.0321078   6.0324696   5.9886222
   6.0349861   6.0069858   6.0100840   6.0203058   6.0200068   6.0404929
   6.0041458   5.9481308   6.0045411
 TTTTTTTTTTTTTTTTTTTTTTTTTTTTTT MOQGAD      TELAPSE       12.98 TCPU       11.99
 TTTTTTTTTTTTTTTTTTTTTTTTTTTTTT SHELLXN     TELAPSE       13.63 TCPU       12.64
 TTTTTTTTTTTTTTTTTTTTTTTTTTTTTT MONMO3      TELAPSE       13.82 TCPU       12.83
 NUMERICALLY INTEGRATED DENSITY     89.9998546427
 TTTTTTTTTTTTTTTTTTTTTTTTTTTTTT NUMDFT      TELAPSE       14.19 TCPU       13.20
 CYC   7 ETOT(AU) -5.707374847345E+02 DETOT -2.97E-03 tst  1.77E-04 PX  4.23E-02
 TTTTTTTTTTTTTTTTTTTTTTTTTTTTTT DIIS        TELAPSE       14.23 TCPU       13.24
 DIIS TEST: 0.16642E-01 AT SCF   CYCLE   7 - DIIS ACTIVE - HISTORY:     7 CYCLES
 TTTTTTTTTTTTTTTTTTTTTTTTTTTTTT FDIK        TELAPSE       14.41 TCPU       13.42
 POSSIBLY CONDUCTING STATE - EFERMI(AU) -1.7861272E-01 (RES. CHARGE  2.64E-10;IT.  8)
 TTTTTTTTTTTTTTTTTTTTTTTTTTTTTT PDIG        TELAPSE       14.49 TCPU       13.50
 CHARGE NORMALIZATION FACTOR   1.00000000
 TOTAL ATOMIC CHARGES:
   5.9807685   5.9390181   5.9385842   6.0208202   6.0208187   5.9967313
   6.0216074   5.9577822   5.9575692   6.0187906   6.0187328   6.0547894
   5.9992967   6.0754537   5.9992370
 TTTTTTTTTTTTTTTTTTTTTTTTTTTTTT MOQGAD      TELAPSE       14.49 TCPU       13.50
 TTTTTTTTTTTTTTTTTTTTTTTTTTTTTT SHELLXN     TELAPSE       15.15 TCPU       14.15
 TTTTTTTTTTTTTTTTTTTTTTTTTTTTTT MONMO3      TELAPSE       15.34 TCPU       14.34
 NUMERICALLY INTEGRATED DENSITY     89.9998547642
 TTTTTTTTTTTTTTTTTTTTTTTTTTTTTT NUMDFT      TELAPSE       15.71 TCPU       14.72
 CYC   8 ETOT(AU) -5.707387264010E+02 DETOT -1.24E-03 tst  9.83E-05 PX  2.89E-02
 TTTTTTTTTTTTTTTTTTTTTTTTTTTTTT DIIS        TELAPSE       15.73 TCPU       14.73
 DIIS TEST: 0.65588E-02 AT SCF   CYCLE   8 - DIIS ACTIVE - HISTORY:     8 CYCLES
 TTTTTTTTTTTTTTTTTTTTTTTTTTTTTT FDIK        TELAPSE       15.89 TCPU       14.89
 POSSIBLY CONDUCTING STATE - EFERMI(AU) -1.7719331E-01 (RES. CHARGE  3.55E-14;IT. 14)
 TTTTTTTTTTTTTTTTTTTTTTTTTTTTTT PDIG        TELAPSE       15.98 TCPU       14.98
 CHARGE NORMALIZATION FACTOR   1.00000000
 TOTAL ATOMIC CHARGES:
   6.0324875   5.9625796   5.9633914   6.0302953   6.0303218   6.0169344
   6.0280491   5.9518361   5.9515679   6.0247189   6.0247529   6.0566247
   6.0080470   5.9104517   6.0079418
 TTTTTTTTTTTTTTTTTTTTTTTTTTTTTT MOQGAD      TELAPSE       15.98 TCPU       14.98
 TTTTTTTTTTTTTTTTTTTTTTTTTTTTTT SHELLXN     TELAPSE       16.63 TCPU       15.63
 TTTTTTTTTTTTTTTTTTTTTTTTTTTTTT MONMO3      TELAPSE       16.82 TCPU       15.82
 NUMERICALLY INTEGRATED DENSITY     89.9998538906
 TTTTTTTTTTTTTTTTTTTTTTTTTTTTTT NUMDFT      TELAPSE       17.08 TCPU       16.07
 CYC   9 ETOT(AU) -5.707367039849E+02 DETOT  2.02E-03 tst  1.94E-04 PX  3.98E-02
 TTTTTTTTTTTTTTTTTTTTTTTTTTTTTT DIIS        TELAPSE       17.10 TCPU       16.09
 DIIS TEST: 0.17100E-01 AT SCF   CYCLE   9 - DIIS ACTIVE - HISTORY:     9 CYCLES
 TTTTTTTTTTTTTTTTTTTTTTTTTTTTTT FDIK        TELAPSE       17.30 TCPU       16.16
 POSSIBLY CONDUCTING STATE - EFERMI(AU) -1.7772987E-01 (RES. CHARGE  2.12E-11;IT. 12)
 TTTTTTTTTTTTTTTTTTTTTTTTTTTTTT PDIG        TELAPSE       17.39 TCPU       16.25
 CHARGE NORMALIZATION FACTOR   1.00000000
 TOTAL ATOMIC CHARGES:
   5.9803180   5.9348999   5.9340416   6.0330865   6.0331919   6.0008618
   6.0258988   5.9664809   5.9672055   6.0257672   6.0257092   6.0519495
   6.0069988   6.0065046   6.0070860
 TTTTTTTTTTTTTTTTTTTTTTTTTTTTTT MOQGAD      TELAPSE       17.39 TCPU       16.25
 TTTTTTTTTTTTTTTTTTTTTTTTTTTTTT SHELLXN     TELAPSE       18.04 TCPU       16.90
 TTTTTTTTTTTTTTTTTTTTTTTTTTTTTT MONMO3      TELAPSE       18.23 TCPU       17.09
 NUMERICALLY INTEGRATED DENSITY     89.9998545851
 TTTTTTTTTTTTTTTTTTTTTTTTTTTTTT NUMDFT      TELAPSE       18.49 TCPU       17.34
 CYC  10 ETOT(AU) -5.707396639757E+02 DETOT -2.96E-03 tst  7.51E-05 PX  2.69E-02
 TTTTTTTTTTTTTTTTTTTTTTTTTTTTTT DIIS        TELAPSE       18.50 TCPU       17.36
 DIIS TEST: 0.76281E-04 AT SCF   CYCLE  10 - DIIS ACTIVE - HISTORY:    10 CYCLES
 TTTTTTTTTTTTTTTTTTTTTTTTTTTTTT FDIK        TELAPSE       18.67 TCPU       17.52
 POSSIBLY CONDUCTING STATE - EFERMI(AU) -1.7782708E-01 (RES. CHARGE  1.64E-12;IT. 10)
 TTTTTTTTTTTTTTTTTTTTTTTTTTTTTT PDIG        TELAPSE       18.76 TCPU       17.61
 CHARGE NORMALIZATION FACTOR   1.00000000
 TOTAL ATOMIC CHARGES:
   5.9805757   5.9297148   5.9303360   6.0314600   6.0313901   6.0030070
   6.0233685   5.9675076   5.9669328   6.0242797   6.0241628   6.0525102
   6.0074906   6.0198805   6.0073839
 TTTTTTTTTTTTTTTTTTTTTTTTTTTTTT MOQGAD      TELAPSE       18.76 TCPU       17.61
 TTTTTTTTTTTTTTTTTTTTTTTTTTTTTT SHELLXN     TELAPSE       19.41 TCPU       18.26
 TTTTTTTTTTTTTTTTTTTTTTTTTTTTTT MONMO3      TELAPSE       19.60 TCPU       18.45
 NUMERICALLY INTEGRATED DENSITY     89.9998546703
 TTTTTTTTTTTTTTTTTTTTTTTTTTTTTT NUMDFT      TELAPSE       19.97 TCPU       18.82
 CYC  11 ETOT(AU) -5.707396256254E+02 DETOT  3.84E-05 tst  1.58E-06 PX  3.19E-03
 TTTTTTTTTTTTTTTTTTTTTTTTTTTTTT DIIS        TELAPSE       20.01 TCPU       18.86
 DIIS TEST: 0.28437E-03 AT SCF   CYCLE  11 - DIIS ACTIVE - HISTORY:    11 CYCLES
 TTTTTTTTTTTTTTTTTTTTTTTTTTTTTT FDIK        TELAPSE       20.19 TCPU       19.04
 POSSIBLY CONDUCTING STATE - EFERMI(AU) -1.7783039E-01 (RES. CHARGE  1.07E-13;IT.  8)
 TTTTTTTTTTTTTTTTTTTTTTTTTTTTTT PDIG        TELAPSE       20.27 TCPU       19.12
 CHARGE NORMALIZATION FACTOR   1.00000000
 TOTAL ATOMIC CHARGES:
   5.9853949   5.9348069   5.9329981   6.0314431   6.0316778   6.0029123
   6.0234992   5.9658410   5.9666414   6.0237306   6.0239003   6.0530658
   6.0072777   6.0093871   6.0074238
 TTTTTTTTTTTTTTTTTTTTTTTTTTTTTT MOQGAD      TELAPSE       20.28 TCPU       19.13
 TTTTTTTTTTTTTTTTTTTTTTTTTTTTTT SHELLXN     TELAPSE       20.93 TCPU       19.78
 TTTTTTTTTTTTTTTTTTTTTTTTTTTTTT MONMO3      TELAPSE       21.12 TCPU       19.97
 NUMERICALLY INTEGRATED DENSITY     89.9998545993
 TTTTTTTTTTTTTTTTTTTTTTTTTTTTTT NUMDFT      TELAPSE       21.49 TCPU       20.34
 CYC  12 ETOT(AU) -5.707396710509E+02 DETOT -4.54E-05 tst  1.63E-06 PX  3.06E-03
 TTTTTTTTTTTTTTTTTTTTTTTTTTTTTT DIIS        TELAPSE       21.51 TCPU       20.36
 DIIS TEST: 0.12728E-04 AT SCF   CYCLE  12 - DIIS ACTIVE - HISTORY:    12 CYCLES
 TTTTTTTTTTTTTTTTTTTTTTTTTTTTTT FDIK        TELAPSE       21.70 TCPU       20.54
 POSSIBLY CONDUCTING STATE - EFERMI(AU) -1.7783260E-01 (RES. CHARGE  4.26E-14;IT.  8)
 TTTTTTTTTTTTTTTTTTTTTTTTTTTTTT PDIG        TELAPSE       21.78 TCPU       20.63
 CHARGE NORMALIZATION FACTOR   1.00000000
 TOTAL ATOMIC CHARGES:
   5.9863976   5.9345269   5.9349937   6.0315153   6.0314833   6.0031612
   6.0236401   5.9659846   5.9659048   6.0239167   6.0237934   6.0530076
   6.0072088   6.0073026   6.0071635
 TTTTTTTTTTTTTTTTTTTTTTTTTTTTTT MOQGAD      TELAPSE       21.78 TCPU       20.63
 TTTTTTTTTTTTTTTTTTTTTTTTTTTTTT SHELLXN     TELAPSE       22.43 TCPU       21.28
 TTTTTTTTTTTTTTTTTTTTTTTTTTTTTT MONMO3      TELAPSE       22.62 TCPU       21.47
 NUMERICALLY INTEGRATED DENSITY     89.9998545825
 TTTTTTTTTTTTTTTTTTTTTTTTTTTTTT NUMDFT      TELAPSE       22.99 TCPU       21.83
 CYC  13 ETOT(AU) -5.707396723636E+02 DETOT -1.31E-06 tst  6.90E-08 PX  6.27E-04
 TTTTTTTTTTTTTTTTTTTTTTTTTTTTTT DIIS        TELAPSE       23.02 TCPU       21.87
 DIIS TEST: 0.79947E-06 AT SCF   CYCLE  13 - DIIS ACTIVE - HISTORY:    13 CYCLES
 TTTTTTTTTTTTTTTTTTTTTTTTTTTTTT FDIK        TELAPSE       23.21 TCPU       22.05
 POSSIBLY CONDUCTING STATE - EFERMI(AU) -1.7783633E-01 (RES. CHARGE  2.42E-13;IT.  8)
 TTTTTTTTTTTTTTTTTTTTTTTTTTTTTT PDIG        TELAPSE       23.29 TCPU       22.13
 CHARGE NORMALIZATION FACTOR   1.00000000
 TOTAL ATOMIC CHARGES:
   5.9863166   5.9348063   5.9344697   6.0313237   6.0313503   6.0034851
   6.0237365   5.9659532   5.9657586   6.0239776   6.0239683   6.0528408
   6.0070768   6.0078881   6.0070482
 TTTTTTTTTTTTTTTTTTTTTTTTTTTTTT MOQGAD      TELAPSE       23.29 TCPU       22.14
 TTTTTTTTTTTTTTTTTTTTTTTTTTTTTT SHELLXN     TELAPSE       23.95 TCPU       22.79
 TTTTTTTTTTTTTTTTTTTTTTTTTTTTTT MONMO3      TELAPSE       24.14 TCPU       22.98
 NUMERICALLY INTEGRATED DENSITY     89.9998545860
 TTTTTTTTTTTTTTTTTTTTTTTTTTTTTT NUMDFT      TELAPSE       24.51 TCPU       23.35
 CYC  14 ETOT(AU) -5.707396725007E+02 DETOT -1.37E-07 tst  7.05E-09 PX  1.29E-04
 TTTTTTTTTTTTTTTTTTTTTTTTTTTTTT DIIS        TELAPSE       24.53 TCPU       23.37
 DIIS TEST: 0.21282E-06 AT SCF   CYCLE  14 - DIIS ACTIVE - HISTORY:    14 CYCLES
 TTTTTTTTTTTTTTTTTTTTTTTTTTTTTT FDIK        TELAPSE       24.70 TCPU       23.53
 POSSIBLY CONDUCTING STATE - EFERMI(AU) -1.7783632E-01 (RES. CHARGE  3.97E-11;IT.  4)
 TTTTTTTTTTTTTTTTTTTTTTTTTTTTTT PDIG        TELAPSE       24.78 TCPU       23.62
 CHARGE NORMALIZATION FACTOR   1.00000000
 TOTAL ATOMIC CHARGES:
   5.9863017   5.9346548   5.9346150   6.0312557   6.0313363   6.0034771
   6.0237662   5.9656270   5.9659498   6.0239908   6.0239468   6.0529035
   6.0070882   6.0079624   6.0071248
 TTTTTTTTTTTTTTTTTTTTTTTTTTTTTT MOQGAD      TELAPSE       24.78 TCPU       23.62
 TTTTTTTTTTTTTTTTTTTTTTTTTTTTTT SHELLXN     TELAPSE       25.44 TCPU       24.27
 TTTTTTTTTTTTTTTTTTTTTTTTTTTTTT MONMO3      TELAPSE       25.63 TCPU       24.46
 NUMERICALLY INTEGRATED DENSITY     89.9998545869
 TTTTTTTTTTTTTTTTTTTTTTTTTTTTTT NUMDFT      TELAPSE       26.00 TCPU       24.84
 CYC  15 ETOT(AU) -5.707396724823E+02 DETOT  1.84E-08 tst  1.34E-09 PX  5.49E-05
 TTTTTTTTTTTTTTTTTTTTTTTTTTTTTT DIIS        TELAPSE       26.04 TCPU       24.87
 DIIS TEST: 0.22037E-06 AT SCF   CYCLE  15 - DIIS ACTIVE - HISTORY:    15 CYCLES
 TTTTTTTTTTTTTTTTTTTTTTTTTTTTTT FDIK        TELAPSE       26.22 TCPU       25.06
 POSSIBLY CONDUCTING STATE - EFERMI(AU) -1.7783620E-01 (RES. CHARGE  4.63E-12;IT.  6)
 TTTTTTTTTTTTTTTTTTTTTTTTTTTTTT PDIG        TELAPSE       26.31 TCPU       25.14
 CHARGE NORMALIZATION FACTOR   1.00000000
 TOTAL ATOMIC CHARGES:
   5.9863425   5.9347682   5.9346135   6.0312837   6.0313077   6.0034337
   6.0237739   5.9657806   5.9657416   6.0239730   6.0239342   6.0529545
   6.0071470   6.0078162   6.0071296
 TTTTTTTTTTTTTTTTTTTTTTTTTTTTTT MOQGAD      TELAPSE       26.31 TCPU       25.14
 TTTTTTTTTTTTTTTTTTTTTTTTTTTTTT SHELLXN     TELAPSE       26.96 TCPU       25.79
 TTTTTTTTTTTTTTTTTTTTTTTTTTTTTT MONMO3      TELAPSE       27.15 TCPU       25.98
 NUMERICALLY INTEGRATED DENSITY     89.9998545861
 TTTTTTTTTTTTTTTTTTTTTTTTTTTTTT NUMDFT      TELAPSE       27.41 TCPU       26.24
 CYC  16 ETOT(AU) -5.707396724994E+02 DETOT -1.71E-08 tst  5.34E-10 PX  4.19E-05
 TTTTTTTTTTTTTTTTTTTTTTTTTTTTTT DIIS        TELAPSE       27.43 TCPU       26.26
 DIIS TEST: 0.16044E-07 AT SCF   CYCLE  16 - DIIS ACTIVE - HISTORY:    16 CYCLES
 TTTTTTTTTTTTTTTTTTTTTTTTTTTTTT FDIK        TELAPSE       27.61 TCPU       26.44
 POSSIBLY CONDUCTING STATE - EFERMI(AU) -1.7783648E-01 (RES. CHARGE  2.58E-12;IT.  6)
 TTTTTTTTTTTTTTTTTTTTTTTTTTTTTT PDIG        TELAPSE       27.70 TCPU       26.52
 CHARGE NORMALIZATION FACTOR   1.00000000
 TOTAL ATOMIC CHARGES:
   5.9863556   5.9347888   5.9346545   6.0312826   6.0313231   6.0034578
   6.0237608   5.9657697   5.9657631   6.0239758   6.0239409   6.0529399
   6.0071261   6.0077416   6.0071197
 TTTTTTTTTTTTTTTTTTTTTTTTTTTTTT MOQGAD      TELAPSE       27.70 TCPU       26.52
 TTTTTTTTTTTTTTTTTTTTTTTTTTTTTT SHELLXN     TELAPSE       28.35 TCPU       27.17
 TTTTTTTTTTTTTTTTTTTTTTTTTTTTTT MONMO3      TELAPSE       28.54 TCPU       27.36
 NUMERICALLY INTEGRATED DENSITY     89.9998545855
 TTTTTTTTTTTTTTTTTTTTTTTTTTTTTT NUMDFT      TELAPSE       28.91 TCPU       27.74
 CYC  17 ETOT(AU) -5.707396724958E+02 DETOT  3.59E-09 tst  6.01E-11 PX  1.94E-05
 TTTTTTTTTTTTTTTTTTTTTTTTTTTTTT DIIS        TELAPSE       28.95 TCPU       27.78
 DIIS TEST: 0.59322E-09 AT SCF   CYCLE  17 - DIIS ACTIVE - HISTORY:    17 CYCLES
 TTTTTTTTTTTTTTTTTTTTTTTTTTTTTT FDIK        TELAPSE       29.14 TCPU       27.96
 POSSIBLY CONDUCTING STATE - EFERMI(AU) -1.7783638E-01 (RES. CHARGE  2.90E-12;IT.  6)
 TTTTTTTTTTTTTTTTTTTTTTTTTTTTTT PDIG        TELAPSE       29.22 TCPU       28.04
 CHARGE NORMALIZATION FACTOR   1.00000000
 TOTAL ATOMIC CHARGES:
   5.9863591   5.9347909   5.9346485   6.0312893   6.0313188   6.0034543
   6.0237639   5.9657633   5.9657639   6.0239777   6.0239382   6.0529386
   6.0071301   6.0077449   6.0071185
 TTTTTTTTTTTTTTTTTTTTTTTTTTTTTT MOQGAD      TELAPSE       29.22 TCPU       28.05
 TTTTTTTTTTTTTTTTTTTTTTTTTTTTTT SHELLXN     TELAPSE       29.88 TCPU       28.70
 TTTTTTTTTTTTTTTTTTTTTTTTTTTTTT MONMO3      TELAPSE       30.07 TCPU       28.89
 NUMERICALLY INTEGRATED DENSITY     89.9998545854
 TTTTTTTTTTTTTTTTTTTTTTTTTTTTTT NUMDFT      TELAPSE       30.32 TCPU       29.14
 CYC  18 ETOT(AU) -5.707396724954E+02 DETOT  3.62E-10 tst  7.51E-13 PX  1.44E-06
 TTTTTTTTTTTTTTTTTTTTTTTTTTTTTT DIIS        TELAPSE       30.35 TCPU       29.17
 DIIS TEST: 0.54169E-09 AT SCF   CYCLE  18 - DIIS ACTIVE - HISTORY:    18 CYCLES
 TTTTTTTTTTTTTTTTTTTTTTTTTTTTTT FDIK        TELAPSE       30.53 TCPU       29.35
 POSSIBLY CONDUCTING STATE - EFERMI(AU) -1.7783638E-01 (RES. CHARGE  2.24E-12;IT.  4)
 TTTTTTTTTTTTTTTTTTTTTTTTTTTTTT PDIG        TELAPSE       30.62 TCPU       29.44
 CHARGE NORMALIZATION FACTOR   1.00000000
 TOTAL ATOMIC CHARGES:
   5.9863627   5.9347907   5.9346527   6.0312864   6.0313215   6.0034538
   6.0237645   5.9657644   5.9657613   6.0239764   6.0239392   6.0529391
   6.0071290   6.0077383   6.0071200
 TTTTTTTTTTTTTTTTTTTTTTTTTTTTTT MOQGAD      TELAPSE       30.62 TCPU       29.44
 TTTTTTTTTTTTTTTTTTTTTTTTTTTTTT SHELLXN     TELAPSE       31.27 TCPU       30.09
 +++ ENERGIES IN A.U. +++
 ::: EXT EL-POLE                                  -7.8575959287174E+02
 ::: EXT EL-SPHEROPOLE                             6.1004333420715E+00
 ::: BIELET ZONE E-E                               1.1882590062838E+03
 ::: TOTAL E-E                                     4.0859984675409E+02
 ::: TOTAL E-N + N-E                              -1.5965952576041E+03
 ::: TOTAL N-N                                     1.3002963823853E+02
 ::: KINETIC ENERGY                                5.6771315866328E+02
 ::: PSEUDO TOTAL   ENERGY                        -4.9025261394820E+02
 ::: VIRIAL COEFFICIENT                            1.0732164940685E+00
 TTTTTTTTTTTTTTTTTTTTTTTTTTTTTT MONMO3      TELAPSE       31.46 TCPU       30.27
 NUMERICALLY INTEGRATED DENSITY     89.9998545854
 TTTTTTTTTTTTTTTTTTTTTTTTTTTTTT NUMDFT      TELAPSE       31.71 TCPU       30.53
 CYC  19 ETOT(AU) -5.707396724943E+02 DETOT  1.15E-09 tst  6.68E-13 PX  1.44E-06

 == SCF ENDED - CONVERGENCE ON ENERGY      E(AU) -5.7073967249427E+02 CYCLES  19


 ENERGY EXPRESSION=HARTREE+FOCK EXCH*0.00000+(PBE        EXCH)*1.00000+PBE        CORR


 TOTAL ENERGY(DFT)(AU)( 19) -5.7073967249427E+02 DE 1.1E-09 tester 6.7E-13
 TTTTTTTTTTTTTTTTTTTTTTTTTTTTTT EDFT        TELAPSE       31.71 TCPU       30.53

 *******************************************************************************
 *                             FORCE CALCULATION                               *
 *******************************************************************************

 TTTTTTTTTTTTTTTTTTTTTTTTTTTTTT NUMDFG      TELAPSE       32.35 TCPU       31.17
 INFORMATION **** EXCPOG **** EXCH. BIPO BUFFER LENGTH (WORDS) =           0
 INFORMATION **** GENPOG **** BIPO BUFFER LENGTH (WORDS) =     1102500
 TTTTTTTTTTTTTTTTTTTTTTTTTTTTTT SHELXG      TELAPSE       34.61 TCPU       33.43

 CARTESIAN FORCES IN HARTREE/BOHR (ANALYTICAL)
   ATOM                     X                   Y                   Z
   1   6             1.925535277658E-05  1.431567300275E-05 -4.306008015882E-06
   2   6             9.955763384362E-06 -1.831672789443E-05 -1.929832559644E-06
   3   6            -1.077506715585E-05  1.299652749864E-07  5.130814202836E-06
   4   6            -9.315856456915E-06  1.716192748025E-06  4.529446190893E-07
   5   6             8.414160864723E-06  1.011604239531E-05  6.406888741595E-06
   6   6            -1.247103263435E-05 -2.839566023649E-06  1.596157897890E-06
   7   6            -8.908852294764E-07  3.141877264922E-05  3.762561128690E-06
   8   6             1.506666211615E-05  1.712750941074E-06  1.036828591428E-06
   9   6            -2.143482495676E-05 -2.130587837712E-06 -3.290593903804E-06
  10   6             2.749258520396E-06 -1.336664057994E-05  4.951468290937E-08
  11   6            -1.583924743903E-05 -4.950890803990E-06 -2.820669278814E-06
  12   6             2.216555029211E-05  1.924079782389E-06 -2.245924433986E-06
  13   6            -1.377499368305E-05 -1.212409399542E-06  2.901217540340E-07
  14   6             6.781339602746E-06 -9.775232930664E-06 -3.164915934275E-06
  15   6             1.138200925732E-07 -8.741421140046E-06 -9.678874583925E-07

 RESULTANT FORCE     9.420242363944E-14  1.837904828328E-13  3.367575315827E-14

 SYMMETRY ALLOWED FORCES (ANALYTICAL) (DIRECTION, FORCE)

    1 -2.8672846E-06    2  2.4669976E-05    3 -4.4571417E-06    4  2.1422017E-05
    5  1.2099844E-06    6 -2.3218644E-06    7 -4.2778681E-06    8 -7.7796221E-06
    9  4.8410539E-06   10 -5.3232817E-06   11 -6.3090549E-06   12  3.7690502E-07
   13 -4.1632057E-06   14  1.3597783E-05   15  6.6574280E-06   16 -3.7832623E-06
   17 -1.0860777E-05   18  2.2891081E-06   19 -2.9556809E-05   20  1.6662555E-05
   21  4.8571182E-06   22  2.5178289E-06   23  1.7788843E-05   24  2.5935238E-06
   25 -1.3210603E-05   26 -1.5678868E-05   27 -1.6794072E-06   28  8.2746269E-06
   29 -1.7626905E-06   30  1.6718042E-06   31 -8.4054986E-06   32 -1.5452543E-05
   33 -1.1614296E-06   34  4.2156576E-06   35  2.2024917E-05   36 -8.3574098E-07
   37 -1.2720409E-05   38 -8.8934664E-06   39  1.9240933E-06   40  2.9904020E-06
   41  3.7174975E-06   42 -1.5535337E-06
 TTTTTTTTTTTTTTTTTTTTTTTTTTTTTT TOTGRA      TELAPSE       35.25 TCPU       34.06
 INFORMATION **** opta001 **** GEOMETRY OUTPUT FILE
 CLASSICAL MODEL (SCHLEGEL) USED AS INITIAL HESSIAN MATRIX
 REFERENCE GEOMETRY DEFINED

 MAX GRADIENT      0.000030  THRESHOLD              0.000450 CONVERGED YES
 RMS GRADIENT      0.000011  THRESHOLD              0.000300 CONVERGED YES

 WARNINGWARNINGWARNINGWARNINGWARNINGWARNINGWARNINGWARNINGWARNINGWARNINGWARNING

 CONVERGENCE ON GRADIENTS SATISFIED AFTER THE FIRST OPTIMIZATION CYCLE
 GEOMETRY OPTIMIZATION STOPPED

 WARNINGWARNINGWARNINGWARNINGWARNINGWARNINGWARNINGWARNINGWARNINGWARNINGWARNING


 ******************************************************************
 * OPT END - CONVERGED * E(AU):  -5.707396724943E+02  POINTS    1 *
 ******************************************************************

   FERMI ENERGY:                 -1.7783638E-01 Ha 

 EIGENVECTORS IN FORTRAN UNIT 10

 NEIGHBORS OF THE NON-EQUIVALENT ATOMS

 N = NUMBER OF NEIGHBORS AT DISTANCE R
    ATOM  N     R/ANG      R/AU   NEIGHBORS (ATOM LABELS AND CELL INDICES)
   1 C    1     1.4065     2.6579   10 C    0 0 0
   1 C    1     1.4065     2.6580   11 C    0 0 0
   1 C    1     1.4360     2.7137    7 C    0 0 0
   1 C    1     2.4226     4.5780    3 C    0-1 0
   1 C    1     2.4226     4.5781    2 C    0 0 0
   1 C    1     2.4484     4.6268    8 C    0 0 0

   2 C    1     1.3945     2.6352   11 C    0 0 0
   2 C    1     1.4276     2.6978   12 C    0 0 0
   2 C    1     2.3889     4.5143    8 C    0 0 0
   2 C    1     2.4226     4.5781    1 C    0 0 0
   2 C    1     2.5219     4.7657    5 C    0 0 0
   2 C    1     2.5273     4.7759    6 C    0 0 0

   3 C    1     1.3944     2.6351   10 C    0 1 0
   3 C    1     1.4276     2.6977   12 C    0 0 0
   3 C    1     2.3891     4.5147    9 C    0 0 0
   3 C    1     2.4226     4.5780    1 C    0 1 0
   3 C    1     2.5219     4.7656    4 C    0 1 0
   3 C    1     2.5271     4.7755    6 C    0 0 0

   4 C    1     1.3752     2.5988   14 C    0 0 0
   4 C    1     1.4397     2.7206   13 C    0 0 0
   4 C    1     1.4759     2.7890   10 C    0 0 0
   4 C    1     2.4367     4.6047    5 C    0 0 0
   4 C    1     2.4610     4.6507    1 C    0 0 0
   4 C    1     2.4839     4.6939    6 C    0-1 0

   5 C    1     1.3752     2.5988   14 C    0 0 0
   5 C    1     1.4397     2.7206   15 C    0 0 0
   5 C    1     1.4758     2.7889   11 C    0 0 0
   5 C    1     2.4367     4.6047    4 C    0 0 0
   5 C    1     2.4610     4.6507    1 C    0 0 0
   5 C    1     2.4839     4.6939    6 C    0 0 0

   6 C    1     1.4473     2.7350   15 C    0 0 0
   6 C    1     1.4473     2.7351   13 C    0 1 0
   6 C    1     1.5482     2.9256   12 C    0 0 0
   6 C    1     2.4839     4.6939    5 C    0 0 0
   6 C    1     2.4839     4.6939    4 C    0 1 0
   6 C    1     2.4885     4.7026    8 C    1 1 0

   7 C    1     1.3900     2.6268    9 C    0-1 0
   7 C    1     1.3901     2.6269    8 C    0 0 0
   7 C    1     1.4360     2.7137    1 C    0 0 0
   7 C    1     2.4380     4.6071   10 C    0 0 0
   7 C    1     2.4380     4.6072   11 C    0 0 0
   7 C    1     2.4537     4.6369   15 C   -1-1 0

   8 C    1     1.3901     2.6269    7 C    0 0 0
   8 C    1     1.4242     2.6914   13 C   -1 0 0
   8 C    1     2.3889     4.5143    2 C    0 0 0
   8 C    1     2.4060     4.5466    9 C    0-1 0
   8 C    1     2.4484     4.6268    1 C    0 0 0
   8 C    1     2.4885     4.7026    6 C   -1-1 0

   9 C    1     1.3900     2.6268    7 C    0 1 0
   9 C    1     1.4243     2.6914   15 C   -1 0 0
   9 C    1     2.3891     4.5147    3 C    0 0 0
   9 C    1     2.4060     4.5466    8 C    0 1 0
   9 C    1     2.4484     4.6269    1 C    0 1 0
   9 C    1     2.4885     4.7027    6 C   -1 0 0

  10 C    1     1.3944     2.6351    3 C    0-1 0
  10 C    1     1.4065     2.6579    1 C    0 0 0
  10 C    1     1.4759     2.7890    4 C    0 0 0
  10 C    1     2.4380     4.6071    7 C    0 0 0
  10 C    1     2.4507     4.6311   14 C    0 0 0
  10 C    1     2.4647     4.6575   12 C    0-1 0

  11 C    1     1.3945     2.6352    2 C    0 0 0
  11 C    1     1.4065     2.6580    1 C    0 0 0
  11 C    1     1.4758     2.7889    5 C    0 0 0
  11 C    1     2.4380     4.6072    7 C    0 0 0
  11 C    1     2.4507     4.6311   14 C    0 0 0
  11 C    1     2.4646     4.6574   12 C    0 0 0

  12 C    1     1.4276     2.6977    3 C    0 0 0
  12 C    1     1.4276     2.6978    2 C    0 0 0
  12 C    1     1.5482     2.9256    6 C    0 0 0
  12 C    1     2.4646     4.6574   11 C    0 0 0
  12 C    1     2.4647     4.6575   10 C    0 1 0
  12 C    1     2.6130     4.9378   15 C    0 0 0

  13 C    1     1.4242     2.6914    8 C    1 0 0
  13 C    1     1.4397     2.7206    4 C    0 0 0
  13 C    1     1.4473     2.7351    6 C    0-1 0
  13 C    1     2.4538     4.6370    7 C    1 0 0
  13 C    1     2.4679     4.6636   14 C    0 0 0
  13 C    1     2.4701     4.6678   15 C    0-1 0

  14 C    1     1.3752     2.5988    4 C    0 0 0
  14 C    1     1.3752     2.5988    5 C    0 0 0
  14 C    1     2.4507     4.6311   10 C    0 0 0
  14 C    1     2.4507     4.6311   11 C    0 0 0
  14 C    1     2.4678     4.6635   15 C    0 0 0
  14 C    1     2.4679     4.6636   13 C    0 0 0

  15 C    1     1.4243     2.6914    9 C    1 0 0
  15 C    1     1.4397     2.7206    5 C    0 0 0
  15 C    1     1.4473     2.7350    6 C    0 0 0
  15 C    1     2.4537     4.6369    7 C    1 1 0
  15 C    1     2.4678     4.6635   14 C    0 0 0
  15 C    1     2.4701     4.6678   13 C    0 1 0


 FINAL OPTIMIZED GEOMETRY - DIMENSIONALITY OF THE SYSTEM      3
 (NON PERIODIC DIRECTION: LATTICE PARAMETER FORMALLY SET TO 500)
 *******************************************************************************
 LATTICE PARAMETERS (ANGSTROMS AND DEGREES) - BOHR = 0.5291772083 ANGSTROM
 PRIMITIVE CELL - CENTRING CODE 1/0 VOLUME=   412.228566 - DENSITY  0.725 g/cm^3
         A              B              C           ALPHA      BETA       GAMMA 
     7.40317242     7.40317242     8.68503800    90.000000  90.000000 120.000000
 *******************************************************************************
 ATOMS IN THE ASYMMETRIC UNIT   15 - ATOMS IN THE UNIT CELL:   15
     ATOM                 X/A                 Y/B                 Z/C    
 *******************************************************************************
      1 T   6 C     4.646067354860E-01  2.322978403741E-01  3.000038007397E-01
      2 T   6 C     4.524016720291E-01 -4.467617986737E-01  3.036289914797E-01
      3 T   6 C     4.524351706217E-01 -1.008222285635E-01  2.963655092350E-01
      4 T   6 C    -2.018655686464E-01  2.345357353226E-01  2.971253942248E-01
      5 T   6 C    -2.018848242167E-01 -4.364001016174E-01  3.028756675644E-01
      6 T   6 C    -2.077828084373E-01 -1.038862912315E-01  2.999971746953E-01
      7 T   6 C     2.406246225452E-01  1.203013795060E-01  2.999995034675E-01
      8 T   6 C     1.319961515167E-01  2.284664004223E-01  2.977741186550E-01
      9 T   6 C     1.319912989138E-01 -9.648540434484E-02  3.022268841696E-01
     10 T   6 C    -4.320175202734E-01  1.165199921961E-01  2.950186859764E-01
     11 T   6 C    -4.320322565538E-01  4.514579739214E-01  3.049839060256E-01
     12 T   6 C    -4.492546308774E-01 -2.246319223804E-01  2.999988271808E-01
     13 T   6 C    -9.007913600610E-02  1.217863746245E-01  2.990288010048E-01
     14 T   6 C    -1.023806406395E-01  4.488181871160E-01  3.000054547612E-01
     15 T   6 C    -9.009159879684E-02 -2.118628033390E-01  3.009672808204E-01

 T = ATOM BELONGING TO THE ASYMMETRIC UNIT
 INFORMATION **** fort.34 **** GEOMETRY OUTPUT FILE

 DIRECT LATTICE VECTORS CARTESIAN COMPONENTS (ANGSTROM)
          X                    Y                    Z
   0.370158621205E+01  -0.641133538787E+01   0.000000000000E+00
   0.370158621205E+01   0.641133538787E+01   0.000000000000E+00
   0.000000000000E+00   0.000000000000E+00   0.868503800000E+01


 CARTESIAN COORDINATES - PRIMITIVE CELL
 *******************************************************************************
 *      ATOM          X(ANGSTROM)         Y(ANGSTROM)         Z(ANGSTROM)
 *******************************************************************************
    1     6 C     2.579652369118E+00 -1.489410240148E+00  2.605544409569E+00
    2     6 C     3.722462689500E+00  6.464968086730E-01  2.637029328903E+00
    3     6 C     5.003111830351E+00  2.864216645873E+00  2.573945709595E+00
    4     6 C     3.822517650564E+00 -3.613420264421E+00  2.580545339607E+00
    5     6 C     5.040505743273E+00 -1.503556096995E+00  2.630486682072E+00
    6     6 C     6.249502382044E+00  6.661154174380E-01  2.605486862121E+00
    7     6 C     1.335998712763E+00 -7.714326660800E-01  2.605507087596E+00
    8     6 C     1.334283212218E+00  6.185031206850E-01  2.586179535935E+00
    9     6 C     3.833014341833E+00  4.946494614964E+00  2.624851973635E+00
   10     6 C     2.533744912183E+00 -2.894477422600E+00  2.562248498415E+00
   11     6 C     3.773492179617E+00 -7.469832083870E-01  2.648796813221E+00
   12     6 C     4.908723250075E+00  1.440131519906E+00  2.605501214021E+00
   13     6 C     3.818953289342E+00 -5.052994542095E+00  2.597076499821E+00
   14     6 C     4.983954657424E+00 -2.877414837729E+00  2.605558774808E+00
   15     6 C     6.285462172486E+00 -7.807160329050E-01  2.613912270682E+00

 ****    1 SYMMOPS - TRANSLATORS IN FRACTIONAL UNITS
 **** MATRICES AND TRANSLATORS IN THE CRYSTALLOGRAPHIC REFERENCE FRAME
   V INV                    ROTATION MATRICES                   TRANSLATORS
   1   1  1.00  0.00  0.00  0.00  1.00  0.00  0.00  0.00  1.00  0.00  0.00  0.00
 TTTTTTTTTTTTTTTTTTTTTTTTTTTTTT END         TELAPSE       35.42 TCPU       34.23
 EEEEEEEEEE TERMINATION  DATE 01 11 2022 TIME 21:40:25.8
NODE    0 CPU TIME =        34.226
    TOTAL CPU TIME =      4328.649
Note: The following floating-point exceptions are signalling: IEEE_UNDERFLOW_FLAG IEEE_DENORMAL
Note: The following floating-point exceptions are signalling: IEEE_UNDERFLOW_FLAG IEEE_DENORMAL
Note: The following floating-point exceptions are signalling: IEEE_UNDERFLOW_FLAG IEEE_DENORMAL
Note: The following floating-point exceptions are signalling: IEEE_UNDERFLOW_FLAG IEEE_DENORMAL
Note: The following floating-point exceptions are signalling: IEEE_UNDERFLOW_FLAG IEEE_DENORMAL
Note: The following floating-point exceptions are signalling: IEEE_UNDERFLOW_FLAG IEEE_DENORMAL
Note: The following floating-point exceptions are signalling: IEEE_UNDERFLOW_FLAG IEEE_DENORMAL
Note: The following floating-point exceptions are signalling: IEEE_UNDERFLOW_FLAG IEEE_DENORMAL
Note: The following floating-point exceptions are signalling: IEEE_UNDERFLOW_FLAG IEEE_DENORMAL
Note: The following floating-point exceptions are signalling: IEEE_UNDERFLOW_FLAG IEEE_DENORMAL
Note: The following floating-point exceptions are signalling: IEEE_UNDERFLOW_FLAG IEEE_DENORMAL
Note: The following floating-point exceptions are signalling: IEEE_UNDERFLOW_FLAG IEEE_DENORMAL
Note: The following floating-point exceptions are signalling: IEEE_UNDERFLOW_FLAG IEEE_DENORMAL
Note: The following floating-point exceptions are signalling: IEEE_UNDERFLOW_FLAG IEEE_DENORMAL
Note: The following floating-point exceptions are signalling: IEEE_UNDERFLOW_FLAG IEEE_DENORMAL
Note: The following floating-point exceptions are signalling: IEEE_UNDERFLOW_FLAG IEEE_DENORMAL
Note: The following floating-point exceptions are signalling: IEEE_UNDERFLOW_FLAG IEEE_DENORMAL
Note: The following floating-point exceptions are signalling: IEEE_UNDERFLOW_FLAG IEEE_DENORMAL
Note: The following floating-point exceptions are signalling: IEEE_UNDERFLOW_FLAG IEEE_DENORMAL
Note: The following floating-point exceptions are signalling: IEEE_UNDERFLOW_FLAG IEEE_DENORMAL
Note: The following floating-point exceptions are signalling: IEEE_UNDERFLOW_FLAG IEEE_DENORMAL
Note: The following floating-point exceptions are signalling: IEEE_UNDERFLOW_FLAG IEEE_DENORMAL
Note: The following floating-point exceptions are signalling: IEEE_UNDERFLOW_FLAG IEEE_DENORMAL
Note: The following floating-point exceptions are signalling: IEEE_UNDERFLOW_FLAG IEEE_DENORMAL
Note: The following floating-point exceptions are signalling: IEEE_UNDERFLOW_FLAG IEEE_DENORMAL
Note: The following floating-point exceptions are signalling: IEEE_UNDERFLOW_FLAG IEEE_DENORMAL
Note: The following floating-point exceptions are signalling: IEEE_UNDERFLOW_FLAG IEEE_DENORMAL
Note: The following floating-point exceptions are signalling: IEEE_UNDERFLOW_FLAG IEEE_DENORMAL
Note: The following floating-point exceptions are signalling: IEEE_UNDERFLOW_FLAG IEEE_DENORMAL
Note: The following floating-point exceptions are signalling: IEEE_UNDERFLOW_FLAG IEEE_DENORMAL
Note: The following floating-point exceptions are signalling: IEEE_UNDERFLOW_FLAG IEEE_DENORMAL
Note: The following floating-point exceptions are signalling: IEEE_UNDERFLOW_FLAG IEEE_DENORMAL
Note: The following floating-point exceptions are signalling: IEEE_UNDERFLOW_FLAG IEEE_DENORMAL
Note: The following floating-point exceptions are signalling: IEEE_UNDERFLOW_FLAG IEEE_DENORMAL
Note: The following floating-point exceptions are signalling: IEEE_UNDERFLOW_FLAG IEEE_DENORMAL
Note: The following floating-point exceptions are signalling: IEEE_UNDERFLOW_FLAG IEEE_DENORMAL
Note: The following floating-point exceptions are signalling: IEEE_UNDERFLOW_FLAG IEEE_DENORMAL
Note: The following floating-point exceptions are signalling: IEEE_UNDERFLOW_FLAG IEEE_DENORMAL
Note: The following floating-point exceptions are signalling: IEEE_UNDERFLOW_FLAG IEEE_DENORMAL
Note: The following floating-point exceptions are signalling: IEEE_UNDERFLOW_FLAG IEEE_DENORMAL
Note: The following floating-point exceptions are signalling: IEEE_UNDERFLOW_FLAG IEEE_DENORMAL
Note: The following floating-point exceptions are signalling: IEEE_UNDERFLOW_FLAG IEEE_DENORMAL
Note: The following floating-point exceptions are signalling: IEEE_UNDERFLOW_FLAG IEEE_DENORMAL
Note: The following floating-point exceptions are signalling: IEEE_UNDERFLOW_FLAG IEEE_DENORMAL
Note: The following floating-point exceptions are signalling: IEEE_UNDERFLOW_FLAG IEEE_DENORMAL
Note: The following floating-point exceptions are signalling: IEEE_UNDERFLOW_FLAG IEEE_DENORMAL
Note: The following floating-point exceptions are signalling: IEEE_UNDERFLOW_FLAG IEEE_DENORMAL
Note: The following floating-point exceptions are signalling: IEEE_UNDERFLOW_FLAG IEEE_DENORMAL
Note: The following floating-point exceptions are signalling: IEEE_UNDERFLOW_FLAG IEEE_DENORMAL
Note: The following floating-point exceptions are signalling: IEEE_UNDERFLOW_FLAG IEEE_DENORMAL
Note: The following floating-point exceptions are signalling: IEEE_UNDERFLOW_FLAG IEEE_DENORMAL
Note: The following floating-point exceptions are signalling: IEEE_UNDERFLOW_FLAG IEEE_DENORMAL
Note: The following floating-point exceptions are signalling: IEEE_UNDERFLOW_FLAG IEEE_DENORMAL
Note: The following floating-point exceptions are signalling: IEEE_UNDERFLOW_FLAG IEEE_DENORMAL
Note: The following floating-point exceptions are signalling: IEEE_UNDERFLOW_FLAG IEEE_DENORMAL
Note: The following floating-point exceptions are signalling: IEEE_UNDERFLOW_FLAG IEEE_DENORMAL
Note: The following floating-point exceptions are signalling: IEEE_UNDERFLOW_FLAG IEEE_DENORMAL
Note: The following floating-point exceptions are signalling: IEEE_UNDERFLOW_FLAG IEEE_DENORMAL
Note: The following floating-point exceptions are signalling: IEEE_UNDERFLOW_FLAG IEEE_DENORMAL
Note: The following floating-point exceptions are signalling: IEEE_UNDERFLOW_FLAG IEEE_DENORMAL
Note: The following floating-point exceptions are signalling: IEEE_UNDERFLOW_FLAG IEEE_DENORMAL
Note: The following floating-point exceptions are signalling: IEEE_UNDERFLOW_FLAG IEEE_DENORMAL
Note: The following floating-point exceptions are signalling: IEEE_UNDERFLOW_FLAG IEEE_DENORMAL
Note: The following floating-point exceptions are signalling: IEEE_UNDERFLOW_FLAG IEEE_DENORMAL
Note: The following floating-point exceptions are signalling: IEEE_UNDERFLOW_FLAG IEEE_DENORMAL
Note: The following floating-point exceptions are signalling: IEEE_UNDERFLOW_FLAG IEEE_DENORMAL
Note: The following floating-point exceptions are signalling: IEEE_UNDERFLOW_FLAG IEEE_DENORMAL
Note: The following floating-point exceptions are signalling: IEEE_UNDERFLOW_FLAG IEEE_DENORMAL
Note: The following floating-point exceptions are signalling: IEEE_UNDERFLOW_FLAG IEEE_DENORMAL
Note: The following floating-point exceptions are signalling: IEEE_UNDERFLOW_FLAG IEEE_DENORMAL
Note: The following floating-point exceptions are signalling: IEEE_UNDERFLOW_FLAG IEEE_DENORMAL
Note: The following floating-point exceptions are signalling: IEEE_UNDERFLOW_FLAG IEEE_DENORMAL
Note: The following floating-point exceptions are signalling: IEEE_UNDERFLOW_FLAG IEEE_DENORMAL
Note: The following floating-point exceptions are signalling: IEEE_UNDERFLOW_FLAG IEEE_DENORMAL
Note: The following floating-point exceptions are signalling: IEEE_UNDERFLOW_FLAG IEEE_DENORMAL
Note: The following floating-point exceptions are signalling: IEEE_UNDERFLOW_FLAG IEEE_DENORMAL
Note: The following floating-point exceptions are signalling: IEEE_UNDERFLOW_FLAG IEEE_DENORMAL
Note: The following floating-point exceptions are signalling: IEEE_UNDERFLOW_FLAG IEEE_DENORMAL
Note: The following floating-point exceptions are signalling: IEEE_UNDERFLOW_FLAG IEEE_DENORMAL
Note: The following floating-point exceptions are signalling: IEEE_UNDERFLOW_FLAG IEEE_DENORMAL
Note: The following floating-point exceptions are signalling: IEEE_UNDERFLOW_FLAG IEEE_DENORMAL
Note: The following floating-point exceptions are signalling: IEEE_UNDERFLOW_FLAG IEEE_DENORMAL
Note: The following floating-point exceptions are signalling: IEEE_UNDERFLOW_FLAG IEEE_DENORMAL
Note: The following floating-point exceptions are signalling: IEEE_UNDERFLOW_FLAG IEEE_DENORMAL
Note: The following floating-point exceptions are signalling: IEEE_UNDERFLOW_FLAG IEEE_DENORMAL
Note: The following floating-point exceptions are signalling: IEEE_UNDERFLOW_FLAG IEEE_DENORMAL
Note: The following floating-point exceptions are signalling: IEEE_UNDERFLOW_FLAG IEEE_DENORMAL
Note: The following floating-point exceptions are signalling: IEEE_UNDERFLOW_FLAG IEEE_DENORMAL
Note: The following floating-point exceptions are signalling: IEEE_UNDERFLOW_FLAG IEEE_DENORMAL
Note: The following floating-point exceptions are signalling: IEEE_UNDERFLOW_FLAG IEEE_DENORMAL
Note: The following floating-point exceptions are signalling: IEEE_UNDERFLOW_FLAG IEEE_DENORMAL
Note: The following floating-point exceptions are signalling: IEEE_UNDERFLOW_FLAG IEEE_DENORMAL
Note: The following floating-point exceptions are signalling: IEEE_UNDERFLOW_FLAG IEEE_DENORMAL
Note: The following floating-point exceptions are signalling: IEEE_UNDERFLOW_FLAG IEEE_DENORMAL
Note: The following floating-point exceptions are signalling: IEEE_UNDERFLOW_FLAG IEEE_DENORMAL
Note: The following floating-point exceptions are signalling: IEEE_UNDERFLOW_FLAG IEEE_DENORMAL
Note: The following floating-point exceptions are signalling: IEEE_UNDERFLOW_FLAG IEEE_DENORMAL
Note: The following floating-point exceptions are signalling: IEEE_UNDERFLOW_FLAG IEEE_DENORMAL
Note: The following floating-point exceptions are signalling: IEEE_UNDERFLOW_FLAG IEEE_DENORMAL
Note: The following floating-point exceptions are signalling: IEEE_UNDERFLOW_FLAG IEEE_DENORMAL
Note: The following floating-point exceptions are signalling: IEEE_UNDERFLOW_FLAG IEEE_DENORMAL
Note: The following floating-point exceptions are signalling: IEEE_UNDERFLOW_FLAG IEEE_DENORMAL
Note: The following floating-point exceptions are signalling: IEEE_UNDERFLOW_FLAG IEEE_DENORMAL
Note: The following floating-point exceptions are signalling: IEEE_UNDERFLOW_FLAG IEEE_DENORMAL
Note: The following floating-point exceptions are signalling: IEEE_UNDERFLOW_FLAG IEEE_DENORMAL
Note: The following floating-point exceptions are signalling: IEEE_UNDERFLOW_FLAG IEEE_DENORMAL
Note: The following floating-point exceptions are signalling: IEEE_UNDERFLOW_FLAG IEEE_DENORMAL
Note: The following floating-point exceptions are signalling: IEEE_UNDERFLOW_FLAG IEEE_DENORMAL
Note: The following floating-point exceptions are signalling: IEEE_UNDERFLOW_FLAG IEEE_DENORMAL
Note: The following floating-point exceptions are signalling: IEEE_UNDERFLOW_FLAG IEEE_DENORMAL
Note: The following floating-point exceptions are signalling: IEEE_UNDERFLOW_FLAG IEEE_DENORMAL
Note: The following floating-point exceptions are signalling: IEEE_UNDERFLOW_FLAG IEEE_DENORMAL
Note: The following floating-point exceptions are signalling: IEEE_UNDERFLOW_FLAG IEEE_DENORMAL
Note: The following floating-point exceptions are signalling: IEEE_UNDERFLOW_FLAG IEEE_DENORMAL
Note: The following floating-point exceptions are signalling: IEEE_UNDERFLOW_FLAG IEEE_DENORMAL
Note: The following floating-point exceptions are signalling: IEEE_UNDERFLOW_FLAG IEEE_DENORMAL
Note: The following floating-point exceptions are signalling: IEEE_UNDERFLOW_FLAG IEEE_DENORMAL
Note: The following floating-point exceptions are signalling: IEEE_UNDERFLOW_FLAG IEEE_DENORMAL
Note: The following floating-point exceptions are signalling: IEEE_UNDERFLOW_FLAG IEEE_DENORMAL
Note: The following floating-point exceptions are signalling: IEEE_UNDERFLOW_FLAG IEEE_DENORMAL
Note: The following floating-point exceptions are signalling: IEEE_UNDERFLOW_FLAG IEEE_DENORMAL
Note: The following floating-point exceptions are signalling: IEEE_UNDERFLOW_FLAG IEEE_DENORMAL
Note: The following floating-point exceptions are signalling: IEEE_UNDERFLOW_FLAG IEEE_DENORMAL
Note: The following floating-point exceptions are signalling: IEEE_UNDERFLOW_FLAG IEEE_DENORMAL
Note: The following floating-point exceptions are signalling: IEEE_UNDERFLOW_FLAG IEEE_DENORMAL
Note: The following floating-point exceptions are signalling: IEEE_UNDERFLOW_FLAG IEEE_DENORMAL
Note: The following floating-point exceptions are signalling: IEEE_UNDERFLOW_FLAG IEEE_DENORMAL
Note: The following floating-point exceptions are signalling: IEEE_UNDERFLOW_FLAG IEEE_DENORMAL
end_date Tue Nov  1 21:40:26 GMT 2022
 
TEMPORARY          SAVED (in /mnt/lustre/a2fs-work2/work/e05/e05/bcamino/quantum_computing/test_model/optgeom)
fort.34            graphene_3v_F.gui 1492     Nov 1 21:40
fort.33            graphene_3v_F.xyz 2053     Nov 1 21:40
fort.9             graphene_3v_F.f9  1547568  Nov 1 21:40
fort.98            graphene_3v_F.f98 4027511  Nov 1 21:40
opta001            graphene_3v_F.optstory/ 
Disk usage:<du -m>
694	/mnt/lustre/a2fs-work2/work/e05/e05/bcamino/quantum_computing/test_model/optgeom/tmp_graphene_3v_F_
</du -m>
Filesystem                                          1K-blocks          Used     Available Use% Mounted on
10.253.102.2@o2ib1:10.253.102.3@o2ib1:/cls01097 3582178503216 1746905929836 1799050586264  50% /mnt/lustre/a2fs-work2
10.253.102.2@o2ib1:10.253.102.3@o2ib1:/cls01097 3582178503216 1746905929836 1799050586264  50% /mnt/lustre/a2fs-work2
