date:                Tue Nov  1 21:40:27 GMT 2022
hostname:            nid005097
system:              Linux nid005097 4.12.14-197.78_9.1.64-cray_shasta_c #1 SMP Wed Aug 25 14:56:40 UTC 2021 (4e2a900) x86_64 x86_64 x86_64 GNU/Linux
user:                bcamino
input:               /mnt/lustre/a2fs-work2/work/e05/e05/bcamino/quantum_computing/test_model/optgeom/graphene_3v_G.d12
output:              /mnt/lustre/a2fs-work2/work/e05/e05/bcamino/quantum_computing/test_model/optgeom/graphene_3v_G.out
executable script:   /work/e05/e05/bcamino/runCRYSTAL/Pcry_slurm
executable:          Pcrystal
Command:             srun --hint=nomultithread --distribution=block:block Pcrystal
Slurm JobID:         
temporary directory: /mnt/lustre/a2fs-work2/work/e05/e05/bcamino/quantum_computing/test_model/optgeom/tmp_graphene_3v_G_      
input data /mnt/lustre/a2fs-work2/work/e05/e05/bcamino/quantum_computing/test_model/optgeom/graphene_3v_G.d12
Final
EXTERNAL
SYMMREMO
OPTGEOM
ATOMONLY
MAXTRADIUS
0.2
TRUSTRADIUS
0.25
MAXCYCLE
500
END
END
6 8
0 0 6 2.0 1.0
  13575.349682      0.00022245814352
  2035.2333680      0.00172327382520
  463.22562359      0.00892557153140
  131.20019598      0.03572798450200
  42.853015891      0.11076259931000
  15.584185766      0.24295627626000
0 0 2 2.0 1.0
  6.2067138508      0.41440263448000
  2.5764896527      0.23744968655000
0 0 1 0.0 1.0
  0.4941102000      1.00000000000000
0 0 1 0.0 1.0
  0.1644071000      1.00000000000000
0 2 4 2.0 1.0
  34.697232244      0.00533336578050
  7.9582622826      0.03586410909200
  2.3780826883      0.14215873329000
  0.8143320818      0.34270471845000
0 2 1 0.0 1.0
  0.5662417100      1.00000000000000
0 2 1 0.0 1.0
  0.1973545000      1.00000000000000
0 3 1 0.0 1.0
  0.5791584200      1.00000000000000
99 0
ENDBS
DFT
PBE  
ENDDFT
TOLINTEG
8 8 8 8 16
SCFDIR
SHRINK
8 16  
MAXCYCLE
200
TOLDEE
9 
ENDSCF
input data /mnt/lustre/a2fs-work2/work/e05/e05/bcamino/quantum_computing/test_model/optgeom/graphene_3v_G.gui
         128 PROCESSORS WORKING

         
 *******************************************************************************
 *                                                                             *
 *                               CRYSTAL17                                     *
 *                      public : 1.0.2 - March 1st, 2018 STFC/Archer2 build    *
 *                       HTTP://WWW.CRYSTAL.UNITO.IT                           *
 *                                                                             *
 *                              MAIN AUTHORS                                   *
 *                                                                             *
 *  R. DOVESI(1,11), V.R. SAUNDERS(2), C. ROETTI(1,11), R. ORLANDO(1,11),      *
 *  C.M. ZICOVICH-WILSON(1,3), F. PASCALE(4), B. CIVALLERI(1,11),              *
 *  K. DOLL(5), N.M. HARRISON(2,6), I.J. BUSH(7), Ph. D'ARCO(8),               *
 *  M. LLUNELL(9), M. CAUSA'(10), Y. NOEL(8), L. MASCHIO(1,11), A. ERBA(1,11)  *
 *  M. RE'RAT(14), S. CASASSA(1,11)                                            *
 *                                                                             *
 *        CONTRIBUTIONS TO THE CODE HAVE ALSO BEEN GIVEN BY                    *
 *                                                                             *
 *  M. FERRABONE(1,11), M. DE LA PIERRE(1,11), M. FERRERO(1,11),               *
 *  J. BAIMA(1,11), E. ALBANESE(1,11), M.F. PEINTINGER(12), R. BAST(13),       *
 *  B. KIRTMAN(15), V. LACIVITA(1,11), R. DEMICHELIS(1,16)                     *
 *  G. BRANDEBURG(17), S. SALUSTRO(1,11), G. SANSONE(1,11)                     *
 *  M.T. RUGGIERO(18)                                                          *
 *                                                                             *
 * (1) THEORETICAL CHEMISTRY GROUP - UNIVERSITA' DI TORINO - TORINO (ITALY)    *
 * (2) COMPUTATIONAL SCIENCE & ENGINEERING DEPARTMENT - STFC DARESBURY (UK)    *
 * (3) UNIVERSIDAD AUTONOMA DEL ESTADO DE MORELOS - CUERNAVACA (MEXICO)        *
 * (4) UNIVERSITE' DE LORRAINE - NANCY (FRANCE)                                *
 * (5) UNIVERSITAET STUTTGART- STUTTGART (GERMANY)                             *
 * (6) IMPERIAL COLLEGE - LONDON (UK)                                          *
 * (7) OXFORD E-RESEARCH CENTRE - OXFORD (UK)                                  *
 * (8) UPMC - SORBONNE UNIVERSITES - PARIS (FRANCE)                            *
 * (9) UNIVERSIDAD DE BARCELONA - BARCELONA (SPAIN)                            *
 *(10) UNIVERSITA' DI NAPOLI "FEDERICO II" - NAPOLI (ITALY)                    *
 *(11) NIS - NANOSTRUCTURED INTERFACES AND SURFACES - TORINO (ITALY)           *
 *(12) MPI FUER CHEMISCHE ENERGIEKONVERSION - MUELHEIM AN DER RUHR (GERMANY)   *
 *(13) UNIVERSITY OF TROMSO - TROMSO (NORWAY)                                  *
 *(14) UNIVERSITE' DE PAU ET DES PAYS DE L'ADOUR - PAU (FRANCE)                *
 *(15) UNIVERSITY OF CALIFORNIA SANTA BARBARA - SANTA BARBARA (USA)            *
 *(16) CURTIN UNIVERSITY - PERTH (AUSTRALIA)                                   *
 *(17) UNIVERSITY COLLEGE LONDON - LONDON (UK)                                 *
 *(18) CAMBRIDGE UNIVERSITY - CAMBRIDGE (UK)                                   *
 *                                                                             *
 *******************************************************************************
 EEEEEEEEEE STARTING  DATE 01 11 2022 TIME 21:40:30.0
 Final                                                                           

 GEOMETRY INPUT FROM EXTERNAL FILE (FORTRAN UNIT 34)
 3D - CRYSTAL 

 *******************************************************************************
 LATTICE PARAMETERS  (ANGSTROMS AND DEGREES) - PRIMITIVE CELL
       A          B          C        ALPHA      BETA     GAMMA        VOLUME
    7.40317    7.40317    8.68504    90.00000  90.00000 120.00000    412.228566
 INFORMATION **** CHKGRP **** SPGR WITH NO INVERSION

 NUMBER OF IRREDUCIBLE ATOMS IN THE CELL:   15

 CARTESIAN COORDINATES (ANGSTROM) - IRREDUCIBLE ATOMS AND SYMMETRY RELATED

 AT.IRR.  AT  AT.N.          X                   Y                   Z
     1     1     6    3.578454417805E+00  4.704595353974E+00  2.543514239908E+00
     2     2     6    2.305713017724E+00 -1.184501844526E+00  2.369741702848E+00
     3     3     6    3.904079504455E+00  9.125959092030E-01  2.556339577693E+00
     4     4     6    5.282511061098E+00  2.880148036202E+00  2.931876304670E+00
     5     5     6    4.671209694692E+00 -1.354372380972E+00  1.968428002545E+00
     6     6     6    6.287856656836E+00  4.916615127180E-01  3.188779212470E+00
     7     7     6    9.556787550080E-01 -7.565932778780E-01  2.442398125854E+00
     8     8     6    3.096568531300E+00  1.952063093451E+00  2.771313341607E+00
     9     9     6    3.875181421486E+00  3.348174608114E+00  2.703124231063E+00
    10    10     6    2.659479215936E+00 -2.624950226205E+00  2.631394188629E+00
    11    11     6    3.581582528108E+00 -4.708807589600E-01  2.616766219771E+00
    12    12     6    5.294045351764E+00  1.426826600272E+00  2.554128359309E+00
    13    13     6    3.756408673162E+00 -5.906081618028E+00  1.823916489078E+00
    14    14     6    3.935049614550E+00 -2.470288306687E+00  3.483247922654E+00
    15    15     6    6.041560948866E+00 -9.483967006770E-01  2.497703081899E+00

 SPACE  GROUP  N.                     :    1
 NUMBER OF SYMMETRY OPERATORS         :    1
 *******************************************************************************
 LATTICE PARAMETERS (ANGSTROMS AND DEGREES) - BOHR = 0.5291772083 ANGSTROM
 PRIMITIVE CELL - CENTRING CODE 1/0 VOLUME=   412.228566 - DENSITY  0.725 g/cm^3
         A              B              C           ALPHA      BETA       GAMMA 
     7.40317242     7.40317242     8.68503800    90.000000  90.000000 120.000000
 *******************************************************************************
 ATOMS IN THE ASYMMETRIC UNIT   15 - ATOMS IN THE UNIT CELL:   15
     ATOM                 X/A                 Y/B                 Z/C    
 *******************************************************************************
      1 T   6 C     1.164710173377E-01 -1.497356199138E-01  2.928616132604E-01
      2 T   6 C     4.038249152193E-01  2.190737248874E-01  2.728533488107E-01
      3 T   6 C     4.561817309052E-01 -4.014772661690E-01  2.943383296300E-01
      4 T   6 C     4.889332045419E-01 -6.183931600799E-02  3.375778326669E-01
      5 T   6 C    -2.634026818453E-01 -4.746492161530E-01  2.266458710422E-01
      6 T   6 C    -1.889969048170E-01 -1.123106167080E-01  3.671577732268E-01
      7 T   6 C     1.880947798980E-01  7.008609183128E-02  2.812190488808E-01
      8 T   6 C     2.660405925992E-01 -4.294888134674E-01  3.190905257533E-01
      9 T   6 C     2.623350908154E-01 -2.154375718894E-01  3.112391944702E-01
     10 T   6 C    -4.360532625104E-01  1.545234165429E-01  3.029801583630E-01
     11 T   6 C    -4.794872467774E-01  4.470677171306E-01  3.012958860711E-01
     12 T   6 C    -3.961687809056E-01 -1.736212905697E-01  2.940837287423E-01
     13 T   6 C    -3.199789567835E-02  4.680842769664E-02  2.100067367671E-01
     14 T   6 C    -2.758143500835E-01  3.388855279855E-01  4.010630607090E-01
     15 T   6 C    -1.099602087005E-01 -2.578851951973E-01  2.875868916059E-01

 T = ATOM BELONGING TO THE ASYMMETRIC UNIT
 *******************************************************************************
 * GEOMETRY EDITING - INPUT COORDINATES ARE GIVEN IN ANGSTROM         
 *******************************************************************************

 USE OF SYMMETRY WILL BE SUBSEQUENTLY SUSPENDED
 INFORMATION **** NEW DEFAULT **** FINALRUN 4 FOR GEOMETRY OPTIMIZATIONS
 INFORMATION **** NEW DEFAULT **** OPTGEOM OPTIMIZES BOTH ATOMIC COORDINATES AND CELL PARAMETERS
 INFORMATION **** NEW DEFAULT **** TOL. ON ATOMIC DISP TO REDEFINE REF. GEOMETRY: 0.8 Angs
 INFORMATION **** NEW DEFAULT **** N POINTS TO REDEFINE REF. GEOMETRY: N OF OPT DEGS OF FREEDOM
 INFORMATION **** NEW DEFAULT **** TOL. ON ENERGY TO REDEFINE REF. GEOMETRY: 10**-3*(5*N. ATOMS)
 INFORMATION **** ATOMONLY **** ONLY ATOMIC COORDINATES ARE OPTIMIZED
 INFORMATION **** MAXTRADIUS **** MAX ALLOWED TRUST RADIUS  2.000000E-01
 INFORMATION **** TRUSTRADIUS ****  INITIAL VALUE FOR TRUST RADIUS MODIFIED  2.500000E-01
 INFORMATION **** MAXCYCLE ****   MAXIMUM NUMBER OF OPTIMIZATION CYCLES         500

 IMPORTANT INFORMATION:
 THE COORDINATE SYSTEM ADOPTED IN THE OPTIMIZATION IS NOT IN
 GENERAL HOMOGENEOUS UNITS. FOR THIS REASON THE GRADIENT AND 
 HESSIAN MATRIX IN TERMS OF THIS SYSTEM ARE GIVEN WITHOUT
 UNITS. FOR MORE DETAILS SEE THE MANUAL.

 *******************************************************************************
 ATOMIC POSITIONS OPTIMIZATION CONTROL

 INITIAL TRUST RADIUS         0.25000 MAXIMUM TRUST RADIUS               0.20000
 MAXIMUM GRADIENT COMPONENT   0.00045 MAXIMUM DISPLACEMENT COMPONENT     0.00180
 R.M.S. OF GRADIENT COMPONENT 0.00030 R.M.S. OF DISPLACEMENT COMPONENTS  0.00120
 THRESHOLD ON ENERGY CHANGE 0.100E-06 EXTRAPOLATING POLYNOMIAL ORDER           2
 MAXIMUM ALLOWED NUMBER OF STEPS  500 SORTING OF ENERGY POINTS:               NO
 ANALYTICAL  GRADIENT                 HESSIAN UPDATING                      BFGS
 STEP SIZE NUMERICAL GRADIENT 0.00100
 INITIAL HESSIAN MATRIX: SCHLEGEL MODEL 2
 *******************************************************************************


 GCALCO - MAX INDICES DIRECT LATTICE VECTOR    16    16    12
 NO.OF VECTORS CREATED 6999 STARS  379 RMAX   166.99060 BOHR

 GEOMETRY FOR WAVE FUNCTION - DIMENSIONALITY OF THE SYSTEM    3
 (NON PERIODIC DIRECTION: LATTICE PARAMETER FORMALLY SET TO 500)
 *******************************************************************************
 LATTICE PARAMETERS (ANGSTROMS AND DEGREES) - BOHR = 0.5291772083 ANGSTROM
 PRIMITIVE CELL - CENTRING CODE 1/0 VOLUME=   412.228566 - DENSITY  0.725 g/cm^3
         A              B              C           ALPHA      BETA       GAMMA 
     7.40317242     7.40317242     8.68503800    90.000000  90.000000 120.000000
 *******************************************************************************
 ATOMS IN THE ASYMMETRIC UNIT   15 - ATOMS IN THE UNIT CELL:   15
     ATOM                 X/A                 Y/B                 Z/C    
 *******************************************************************************
      1 T   6 C     1.164710173377E-01 -1.497356199138E-01  2.928616132604E-01
      2 T   6 C     4.038249152193E-01  2.190737248874E-01  2.728533488107E-01
      3 T   6 C     4.561817309052E-01 -4.014772661690E-01  2.943383296300E-01
      4 T   6 C     4.889332045419E-01 -6.183931600799E-02  3.375778326669E-01
      5 T   6 C    -2.634026818453E-01 -4.746492161530E-01  2.266458710422E-01
      6 T   6 C    -1.889969048170E-01 -1.123106167080E-01  3.671577732268E-01
      7 T   6 C     1.880947798980E-01  7.008609183128E-02  2.812190488808E-01
      8 T   6 C     2.660405925992E-01 -4.294888134674E-01  3.190905257533E-01
      9 T   6 C     2.623350908154E-01 -2.154375718894E-01  3.112391944702E-01
     10 T   6 C    -4.360532625104E-01  1.545234165429E-01  3.029801583630E-01
     11 T   6 C    -4.794872467774E-01  4.470677171306E-01  3.012958860711E-01
     12 T   6 C    -3.961687809056E-01 -1.736212905697E-01  2.940837287423E-01
     13 T   6 C    -3.199789567835E-02  4.680842769664E-02  2.100067367671E-01
     14 T   6 C    -2.758143500835E-01  3.388855279855E-01  4.010630607090E-01
     15 T   6 C    -1.099602087005E-01 -2.578851951973E-01  2.875868916059E-01

 T = ATOM BELONGING TO THE ASYMMETRIC UNIT

 ****    1 SYMMOPS - TRANSLATORS IN FRACTIONAL UNITS
 **** MATRICES AND TRANSLATORS IN THE CRYSTALLOGRAPHIC REFERENCE FRAME
   V INV                    ROTATION MATRICES                   TRANSLATORS
   1   1  1.00  0.00  0.00  0.00  1.00  0.00  0.00  0.00  1.00  0.00  0.00  0.00

 DIRECT LATTICE VECTORS CARTESIAN COMPONENTS (ANGSTROM)
          X                    Y                    Z
   0.370158621205E+01  -0.641133538787E+01   0.000000000000E+00
   0.370158621205E+01   0.641133538787E+01   0.000000000000E+00
   0.000000000000E+00   0.000000000000E+00   0.868503800000E+01


 CARTESIAN COORDINATES - PRIMITIVE CELL
 *******************************************************************************
 *      ATOM          X(ANGSTROM)         Y(ANGSTROM)         Z(ANGSTROM)
 *******************************************************************************
    1     6 C     3.578454417805E+00  4.704595353974E+00  2.543514239908E+00
    2     6 C     2.305713017724E+00 -1.184501844526E+00  2.369741702848E+00
    3     6 C     3.904079504455E+00  9.125959092030E-01  2.556339577693E+00
    4     6 C     5.282511061098E+00  2.880148036202E+00  2.931876304670E+00
    5     6 C     4.671209694692E+00 -1.354372380972E+00  1.968428002545E+00
    6     6 C     6.287856656836E+00  4.916615127180E-01  3.188779212470E+00
    7     6 C     9.556787550080E-01 -7.565932778780E-01  2.442398125854E+00
    8     6 C     3.096568531300E+00  1.952063093451E+00  2.771313341607E+00
    9     6 C     3.875181421486E+00  3.348174608114E+00  2.703124231063E+00
   10     6 C     2.659479215936E+00 -2.624950226205E+00  2.631394188629E+00
   11     6 C     3.581582528108E+00 -4.708807589600E-01  2.616766219771E+00
   12     6 C     5.294045351764E+00  1.426826600272E+00  2.554128359309E+00
   13     6 C     3.756408673162E+00 -5.906081618028E+00  1.823916489078E+00
   14     6 C     3.935049614550E+00 -2.470288306687E+00  3.483247922654E+00
   15     6 C     6.041560948866E+00 -9.483967006770E-01  2.497703081899E+00

 *******************************************************************************
 LOCAL ATOMIC FUNCTIONS BASIS SET
 *******************************************************************************
   ATOM   X(AU)   Y(AU)   Z(AU)  N. TYPE  EXPONENT  S COEF   P COEF   D/F/G COEF
 *******************************************************************************
   1 C    6.762   8.890   4.807
                                  1 S  
                                         1.358E+04 2.225E-04 0.000E+00 0.000E+00
                                         2.035E+03 1.723E-03 0.000E+00 0.000E+00
                                         4.632E+02 8.926E-03 0.000E+00 0.000E+00
                                         1.312E+02 3.573E-02 0.000E+00 0.000E+00
                                         4.285E+01 1.108E-01 0.000E+00 0.000E+00
                                         1.558E+01 2.430E-01 0.000E+00 0.000E+00
                                  2 S  
                                         6.207E+00 4.144E-01 0.000E+00 0.000E+00
                                         2.576E+00 2.374E-01 0.000E+00 0.000E+00
                                  3 S  
                                         4.941E-01 1.000E+00 0.000E+00 0.000E+00
                                  4 S  
                                         1.644E-01 1.000E+00 0.000E+00 0.000E+00
                           5-     7 P  
                                         3.470E+01 0.000E+00 5.333E-03 0.000E+00
                                         7.958E+00 0.000E+00 3.586E-02 0.000E+00
                                         2.378E+00 0.000E+00 1.422E-01 0.000E+00
                                         8.143E-01 0.000E+00 3.427E-01 0.000E+00
                           8-    10 P  
                                         5.662E-01 0.000E+00 1.000E+00 0.000E+00
                          11-    13 P  
                                         1.974E-01 0.000E+00 1.000E+00 0.000E+00
                          14-    18 D  
                                         5.792E-01 0.000E+00 0.000E+00 1.000E+00
   2 C    4.357  -2.238   4.478
   3 C    7.378   1.725   4.831
   4 C    9.982   5.443   5.540
   5 C    8.827  -2.559   3.720
   6 C   11.882   0.929   6.026
   7 C    1.806  -1.430   4.615
   8 C    5.852   3.689   5.237
   9 C    7.323   6.327   5.108
  10 C    5.026  -4.960   4.973
  11 C    6.768  -0.890   4.945
  12 C   10.004   2.696   4.827
  13 C    7.099 -11.161   3.447
  14 C    7.436  -4.668   6.582
  15 C   11.417  -1.792   4.720
 INFORMATION **** SET_MPP **** PCRYSTAL CALCULATION
 INFORMATION **** READM2 **** NEW DEFAULT: FOCK/KS MATRIX MIXING SET TO 30 %
 INFORMATION **** READM2 **** NEW DEFAULT: FULL DIRECT SCF MODE
 INFORMATION **** READM2 **** NEW DEFAULT: COULOMB BIPOLAR BUFFER SET TO 32 Mb
 INFORMATION **** READM2 **** NEW DEFAULT: EXCHANGE BIPOLAR BUFFER SET TO 32 Mb

 *******************************************************************************
 NEW DEFAULT: DFT INTEGRATION GRID INCREASED TO XLGRID
 NEW DEFAULT: DIIS ACCELERATOR ACTIVE
 USE KEYWORD NODIIS TO TURN IT OFF
 *******************************************************************************

 INFORMATION **** TOLINTEG **** COULOMB AND EXCHANGE SERIES TOLERANCES MODIFIED
 INFORMATION **** READM2 **** FULL DIRECT SCF (MONO AND BIEL INT) SELECTED
 INFORMATION **** MAXCYCLE **** MAX NUMBER OF SCF CYCLES SET TO         200
 INFORMATION **** TOLDEE **** SCF TOL ON TOTAL ENERGY SET TO           9
 *******************************************************************************
 N. OF ATOMS PER CELL        15  COULOMB OVERLAP TOL         (T1) 10**   -8
 NUMBER OF SHELLS           120  COULOMB PENETRATION TOL     (T2) 10**   -8
 NUMBER OF AO               270  EXCHANGE OVERLAP TOL        (T3) 10**   20
 N. OF ELECTRONS PER CELL    90  EXCHANGE PSEUDO OVP (F(G))  (T4) 10**   20
 CORE ELECTRONS PER CELL     30  EXCHANGE PSEUDO OVP (P(G))  (T5) 10**   20
 N. OF SYMMETRY OPERATORS     1  POLE ORDER IN MONO ZONE                  4
 *******************************************************************************
 TYPE OF CALCULATION :  RESTRICTED CLOSED SHELL
 KOHN-SHAM HAMILTONIAN

 (EXCHANGE)[CORRELATION] FUNCTIONAL:(PERDEW-BURKE-ERNZERHOF)[PERDEW-BURKE-ERNZERHOF]


 CAPPA:IS1  8;IS2  8;IS3  8; K PTS MONK NET 260; SYMMOPS:K SPACE   2;G SPACE   1

 *******************************************************************************
 MAX NUMBER OF SCF CYCLES     200  CONVERGENCE ON DELTAP        10**-19
 WEIGHT OF F(I) IN F(I+1)      30% CONVERGENCE ON ENERGY        10**- 9
 SHRINK. FACT.(MONKH.)    8  8  8  NUMBER OF K POINTS IN THE IBZ    260
 SHRINKING FACTOR(GILAT NET)   16  NUMBER OF K POINTS(GILAT NET)   2052
 *******************************************************************************
 *** K POINTS COORDINATES (OBLIQUE COORDINATES IN UNITS OF IS =  8)
   1-R(  0  0  0)   2-C(  1  0  0)   3-C(  2  0  0)   4-C(  3  0  0)
   5-R(  4  0  0)   6-C(  0  1  0)   7-C(  1  1  0)   8-C(  2  1  0)
   9-C(  3  1  0)  10-C(  4  1  0)  11-C(  5  1  0)  12-C(  6  1  0)
  13-C(  7  1  0)  14-C(  0  2  0)  15-C(  1  2  0)  16-C(  2  2  0)
  17-C(  3  2  0)  18-C(  4  2  0)  19-C(  5  2  0)  20-C(  6  2  0)
  21-C(  7  2  0)  22-C(  0  3  0)  23-C(  1  3  0)  24-C(  2  3  0)
  25-C(  3  3  0)  26-C(  4  3  0)  27-C(  5  3  0)  28-C(  6  3  0)
  29-C(  7  3  0)  30-R(  0  4  0)  31-C(  1  4  0)  32-C(  2  4  0)
  33-C(  3  4  0)  34-R(  4  4  0)  35-C(  0  0  1)  36-C(  1  0  1)
  37-C(  2  0  1)  38-C(  3  0  1)  39-C(  4  0  1)  40-C(  5  0  1)
  41-C(  6  0  1)  42-C(  7  0  1)  43-C(  0  1  1)  44-C(  1  1  1)
  45-C(  2  1  1)  46-C(  3  1  1)  47-C(  4  1  1)  48-C(  5  1  1)
  49-C(  6  1  1)  50-C(  7  1  1)  51-C(  0  2  1)  52-C(  1  2  1)
  53-C(  2  2  1)  54-C(  3  2  1)  55-C(  4  2  1)  56-C(  5  2  1)
  57-C(  6  2  1)  58-C(  7  2  1)  59-C(  0  3  1)  60-C(  1  3  1)
  61-C(  2  3  1)  62-C(  3  3  1)  63-C(  4  3  1)  64-C(  5  3  1)
  65-C(  6  3  1)  66-C(  7  3  1)  67-C(  0  4  1)  68-C(  1  4  1)
  69-C(  2  4  1)  70-C(  3  4  1)  71-C(  4  4  1)  72-C(  5  4  1)
  73-C(  6  4  1)  74-C(  7  4  1)  75-C(  0  5  1)  76-C(  1  5  1)
  77-C(  2  5  1)  78-C(  3  5  1)  79-C(  4  5  1)  80-C(  5  5  1)
  81-C(  6  5  1)  82-C(  7  5  1)  83-C(  0  6  1)  84-C(  1  6  1)
  85-C(  2  6  1)  86-C(  3  6  1)  87-C(  4  6  1)  88-C(  5  6  1)
  89-C(  6  6  1)  90-C(  7  6  1)  91-C(  0  7  1)  92-C(  1  7  1)
  93-C(  2  7  1)  94-C(  3  7  1)  95-C(  4  7  1)  96-C(  5  7  1)
  97-C(  6  7  1)  98-C(  7  7  1)  99-C(  0  0  2) 100-C(  1  0  2)
 101-C(  2  0  2) 102-C(  3  0  2) 103-C(  4  0  2) 104-C(  5  0  2)
 105-C(  6  0  2) 106-C(  7  0  2) 107-C(  0  1  2) 108-C(  1  1  2)
 109-C(  2  1  2) 110-C(  3  1  2) 111-C(  4  1  2) 112-C(  5  1  2)
 113-C(  6  1  2) 114-C(  7  1  2) 115-C(  0  2  2) 116-C(  1  2  2)
 117-C(  2  2  2) 118-C(  3  2  2) 119-C(  4  2  2) 120-C(  5  2  2)
 121-C(  6  2  2) 122-C(  7  2  2) 123-C(  0  3  2) 124-C(  1  3  2)
 125-C(  2  3  2) 126-C(  3  3  2) 127-C(  4  3  2) 128-C(  5  3  2)
 129-C(  6  3  2) 130-C(  7  3  2) 131-C(  0  4  2) 132-C(  1  4  2)
 133-C(  2  4  2) 134-C(  3  4  2) 135-C(  4  4  2) 136-C(  5  4  2)
 137-C(  6  4  2) 138-C(  7  4  2) 139-C(  0  5  2) 140-C(  1  5  2)
 141-C(  2  5  2) 142-C(  3  5  2) 143-C(  4  5  2) 144-C(  5  5  2)
 145-C(  6  5  2) 146-C(  7  5  2) 147-C(  0  6  2) 148-C(  1  6  2)
 149-C(  2  6  2) 150-C(  3  6  2) 151-C(  4  6  2) 152-C(  5  6  2)
 153-C(  6  6  2) 154-C(  7  6  2) 155-C(  0  7  2) 156-C(  1  7  2)
 157-C(  2  7  2) 158-C(  3  7  2) 159-C(  4  7  2) 160-C(  5  7  2)
 161-C(  6  7  2) 162-C(  7  7  2) 163-C(  0  0  3) 164-C(  1  0  3)
 165-C(  2  0  3) 166-C(  3  0  3) 167-C(  4  0  3) 168-C(  5  0  3)
 169-C(  6  0  3) 170-C(  7  0  3) 171-C(  0  1  3) 172-C(  1  1  3)
 173-C(  2  1  3) 174-C(  3  1  3) 175-C(  4  1  3) 176-C(  5  1  3)
 177-C(  6  1  3) 178-C(  7  1  3) 179-C(  0  2  3) 180-C(  1  2  3)
 181-C(  2  2  3) 182-C(  3  2  3) 183-C(  4  2  3) 184-C(  5  2  3)
 185-C(  6  2  3) 186-C(  7  2  3) 187-C(  0  3  3) 188-C(  1  3  3)
 189-C(  2  3  3) 190-C(  3  3  3) 191-C(  4  3  3) 192-C(  5  3  3)
 193-C(  6  3  3) 194-C(  7  3  3) 195-C(  0  4  3) 196-C(  1  4  3)
 197-C(  2  4  3) 198-C(  3  4  3) 199-C(  4  4  3) 200-C(  5  4  3)
 201-C(  6  4  3) 202-C(  7  4  3) 203-C(  0  5  3) 204-C(  1  5  3)
 205-C(  2  5  3) 206-C(  3  5  3) 207-C(  4  5  3) 208-C(  5  5  3)
 209-C(  6  5  3) 210-C(  7  5  3) 211-C(  0  6  3) 212-C(  1  6  3)
 213-C(  2  6  3) 214-C(  3  6  3) 215-C(  4  6  3) 216-C(  5  6  3)
 217-C(  6  6  3) 218-C(  7  6  3) 219-C(  0  7  3) 220-C(  1  7  3)
 221-C(  2  7  3) 222-C(  3  7  3) 223-C(  4  7  3) 224-C(  5  7  3)
 225-C(  6  7  3) 226-C(  7  7  3) 227-R(  0  0  4) 228-C(  1  0  4)
 229-C(  2  0  4) 230-C(  3  0  4) 231-R(  4  0  4) 232-C(  0  1  4)
 233-C(  1  1  4) 234-C(  2  1  4) 235-C(  3  1  4) 236-C(  4  1  4)
 237-C(  5  1  4) 238-C(  6  1  4) 239-C(  7  1  4) 240-C(  0  2  4)
 241-C(  1  2  4) 242-C(  2  2  4) 243-C(  3  2  4) 244-C(  4  2  4)
 245-C(  5  2  4) 246-C(  6  2  4) 247-C(  7  2  4) 248-C(  0  3  4)
 249-C(  1  3  4) 250-C(  2  3  4) 251-C(  3  3  4) 252-C(  4  3  4)
 253-C(  5  3  4) 254-C(  6  3  4) 255-C(  7  3  4) 256-R(  0  4  4)
 257-C(  1  4  4) 258-C(  2  4  4) 259-C(  3  4  4) 260-R(  4  4  4)

 DIRECT LATTICE VECTORS COMPON. (A.U.)     RECIP. LATTICE VECTORS COMPON. (A.U.) 
        X            Y            Z              X            Y            Z
    6.9949842  -12.1156680    0.0000000      0.4491208   -0.2593000    0.0000000
    6.9949842   12.1156680    0.0000000      0.4491208    0.2593000   -0.0000000
    0.0000000    0.0000000   16.4123433     -0.0000000    0.0000000    0.3828329

 DISK SPACE FOR EIGENVECTORS (FTN 10)    37324800 REALS

 SYMMETRY ADAPTION OF THE BLOCH FUNCTIONS DISABLED
 TTTTTTTTTTTTTTTTTTTTTTTTTTTTTT gordsh1     TELAPSE        2.79 TCPU        0.98

 MATRIX SIZE: P(G)  111352, F(G)   55856, P(G) IRR   56141, F(G) IRR   56141
 MAX G-VECTOR INDEX FOR 1- AND 2-ELECTRON INTEGRALS  33

 TTTTTTTTTTTTTTTTTTTTTTTTTTTTTT INPUT       TELAPSE        2.80 TCPU        0.99

 NEIGHBORS OF THE NON-EQUIVALENT ATOMS

 N = NUMBER OF NEIGHBORS AT DISTANCE R
    ATOM  N     R/ANG      R/AU   NEIGHBORS (ATOM LABELS AND CELL INDICES)
   1 C    1     1.3976     2.6412    9 C    0 0 0
   1 C    1     1.4411     2.7233    7 C    0 1 0
   1 C    1     1.4529     2.7456   15 C   -1 0 0
   1 C    1     2.3329     4.4085   13 C   -1 1 0
   1 C    1     2.4904     4.7062    2 C    0 1 0
   1 C    1     2.4968     4.7182    6 C   -1 0 0

   2 C    1     1.4181     2.6798    7 C    0 0 0
   2 C    1     1.4826     2.8017   11 C    0 0 0
   2 C    1     1.5062     2.8462   10 C    0 0 0
   2 C    1     2.3554     4.4510   14 C    0 0 0
   2 C    1     2.4053     4.5454    5 C    0 0 0
   2 C    1     2.4904     4.7062    1 C    0-1 0

   3 C    1     1.3337     2.5203    8 C    0 0 0
   3 C    1     1.4219     2.6869   11 C    0 0 0
   3 C    1     1.4820     2.8007   12 C    0 0 0
   3 C    1     2.4315     4.5949    4 C    0 0 0
   3 C    1     2.4402     4.6113    9 C    0 0 0
   3 C    1     2.4644     4.6570    5 C    0 0 0

   4 C    1     1.4404     2.7220   10 C    0 1 0
   4 C    1     1.5007     2.8358    9 C    0 0 0
   4 C    1     1.5017     2.8377   12 C    0 0 0
   4 C    1     2.3802     4.4980    8 C    0 0 0
   4 C    1     2.4315     4.5949    3 C    0 0 0
   4 C    1     2.5196     4.7613    2 C    0 1 0

   5 C    1     1.5241     2.8801   15 C    0 0 0
   5 C    1     1.5454     2.9203   11 C    0 0 0
   5 C    1     2.0204     3.8179   14 C    0 0 0
   5 C    1     2.4053     4.5454    2 C    0 0 0
   5 C    1     2.4644     4.6570    3 C    0 0 0
   5 C    1     2.4700     4.6676   10 C    0 0 0

   6 C    1     1.5050     2.8440   12 C    0 0 0
   6 C    1     1.6162     3.0541   15 C    0 0 0
   6 C    1     1.7978     3.3974   13 C    0 1 0
   6 C    1     2.4968     4.7182    1 C    1 0 0
   6 C    1     2.5019     4.7279    3 C    0 0 0
   6 C    1     2.5307     4.7823    7 C    1 1 0

   7 C    1     1.4181     2.6798    2 C    0 0 0
   7 C    1     1.4411     2.7233    1 C    0-1 0
   7 C    1     1.6692     3.1544   13 C   -1 0 0
   7 C    1     2.3259     4.3953   15 C   -1-1 0
   7 C    1     2.4495     4.6288    9 C    0-1 0
   7 C    1     2.5307     4.7823    6 C   -1-1 0

   8 C    1     1.3337     2.5203    3 C    0 0 0
   8 C    1     1.6000     3.0236    9 C    0 0 0
   8 C    1     2.2698     4.2893   12 C    0 0 0
   8 C    1     2.3802     4.4980    4 C    0 0 0
   8 C    1     2.4758     4.6787   11 C    0 0 0
   8 C    1     2.8037     5.2982    1 C    0 0 0

   9 C    1     1.3976     2.6412    1 C    0 0 0
   9 C    1     1.5007     2.8358    4 C    0 0 0
   9 C    1     1.6000     3.0236    8 C    0 0 0
   9 C    1     2.3931     4.5223   12 C    0 0 0
   9 C    1     2.4402     4.6113    3 C    0 0 0
   9 C    1     2.4495     4.6288    7 C    0 1 0

  10 C    1     1.4404     2.7220    4 C    0-1 0
  10 C    1     1.5062     2.8462    2 C    0 0 0
  10 C    1     1.5416     2.9133   14 C    0 0 0
  10 C    1     2.3432     4.4280   11 C    0 0 0
  10 C    1     2.4700     4.6676    5 C    0 0 0
  10 C    1     2.5252     4.7720    9 C    0-1 0

  11 C    1     1.4219     2.6869    3 C    0 0 0
  11 C    1     1.4826     2.8017    2 C    0 0 0
  11 C    1     1.5454     2.9203    5 C    0 0 0
  11 C    1     2.2076     4.1717   14 C    0 0 0
  11 C    1     2.3432     4.4280   10 C    0 0 0
  11 C    1     2.4758     4.6787    8 C    0 0 0

  12 C    1     1.4820     2.8007    3 C    0 0 0
  12 C    1     1.5017     2.8377    4 C    0 0 0
  12 C    1     1.5050     2.8440    6 C    0 0 0
  12 C    1     2.2698     4.2893    8 C    0 0 0
  12 C    1     2.3931     4.5223    9 C    0 0 0
  12 C    1     2.4628     4.6539   13 C    0 1 0

  13 C    1     1.6692     3.1544    7 C    1 0 0
  13 C    1     1.7978     3.3974    6 C    0-1 0
  13 C    1     2.1385     4.0413   15 C    0-1 0
  13 C    1     2.3329     4.4085    1 C    1-1 0
  13 C    1     2.4628     4.6539   12 C    0-1 0
  13 C    1     2.8670     5.4179    2 C    1 0 0

  14 C    1     1.5416     2.9133   10 C    0 0 0
  14 C    1     2.0204     3.8179    5 C    0 0 0
  14 C    1     2.2076     4.1717   11 C    0 0 0
  14 C    1     2.3554     4.4510    2 C    0 0 0
  14 C    1     2.6403     4.9895    4 C    0-1 0
  14 C    1     2.7794     5.2522   15 C    0 0 0

  15 C    1     1.4529     2.7456    1 C    1 0 0
  15 C    1     1.5241     2.8801    5 C    0 0 0
  15 C    1     1.6162     3.0541    6 C    0 0 0
  15 C    1     2.1385     4.0413   13 C    0 1 0
  15 C    1     2.3259     4.3953    7 C    1 1 0
  15 C    1     2.4907     4.7068   12 C    0 0 0


 SYMMETRY ALLOWED INTERNAL DEGREE(S) OF FREEDOM:  42
 TTTTTTTTTTTTTTTTTTTTTTTTTTTTTT SYMM        TELAPSE        2.81 TCPU        0.99
 TTTTTTTTTTTTTTTTTTTTTTTTTTTTTT INT_SCREEN  TELAPSE        2.81 TCPU        0.99

 *******************************************************************************
 *                             OPTIMIZATION STARTS                             *
 *******************************************************************************
 RECLASIFICATION OF INDICES FOR INTEGRAL CALC ACCORDING TO DIFFERENT CRITERIA:
           FIXDELTE                  FIXDELTX              FIXDELTN
          0.10000000               0.80000000                 42
 *******************************************************************************

 *******************************************************************************
 COORDINATE OPTIMIZATION - POINT    1
 INFORMATION **** EXCBUF **** EXCH. BIPO BUFFER: WORDS USED =           0

 DFT PARAMETERS

     ATOM       ELECTRONS   NET CHARGE   R(ANGSTROM)
   1   6  C       6.0000      0.0000     0.77000000

 SIZE OF GRID=     505912
 TTTTTTTTTTTTTTTTTTTTTTTTTTTTTT MAKE_GRID2  TELAPSE        3.17 TCPU        1.35
 BECKE WEIGHT FUNCTION
 RADSAFE =     2.00
 TOLERANCES - DENSITY:10**- 6; POTENTIAL:10**- 9; GRID WGT:10**-14

 RADIAL INTEGRATION  - INTERVALS (POINTS,UPPER LIMIT):            1( 75,  4.0*R)

 ANGULAR INTEGRATION - INTERVALS (ACCURACY LEVEL [N. POINTS] UPPER LIMIT):
  1(  4[  86]   0.2)  2(  8[ 194]   0.5)  3( 12[ 350]   0.9)  4( 16[ 974]   3.5)
  5( 12[ 350]9999.0)
 TTTTTTTTTTTTTTTTTTTTTTTTTTTTTT INT_CALC    TELAPSE        3.19 TCPU        1.37

 *******************************************************************************
 Final                                                                           
 CRYSTAL - SCF - TYPE OF CALCULATION :  RESTRICTED CLOSED SHELL
 *******************************************************************************

 CAPPA:IS1  8;IS2  8;IS3  8; K PTS MONK NET 260; SYMMOPS:K SPACE   2;G SPACE   1

 TTTTTTTTTTTTTTTTTTTTTTTTTTTTTT SDIK        TELAPSE        3.25 TCPU        1.43

 AAAAAAAAAAAAAAAAAAAAAAAAAAAAAAAAAAAAAAAAAAAAAAAAAAAAAAAAAAAAAAAAAAAAAAAAAAAAAAA
         ATOMIC WAVEFUNCTION(S)


 NUCLEAR CHARGE  6.0  SYMMETRY SPECIES            S    P
 N. ELECTRONS    6.0  NUMBER OF PRIMITIVE GTOS   10    6
                      NUMBER OF CONTRACTED GTOS   4    3
                      NUMBER OF CLOSED SHELLS     2    0
                      OPEN SHELL OCCUPATION       0    2

  ZNUC SCFIT  TOTAL HF ENERGY   KINETIC ENERGY   VIRIAL THEOREM ACCURACY
   6.0  10   -3.768111494E+01  3.771190961E+01 -1.999183423E+00  3.4E-06

 AAAAAAAAAAAAAAAAAAAAAAAAAAAAAAAAAAAAAAAAAAAAAAAAAAAAAAAAAAAAAAAAAAAAAAAAAAAAAAA

 CHARGE NORMALIZATION FACTOR   1.00000000
 TOTAL ATOMIC CHARGES:
   6.0000000   6.0000000   6.0000000   6.0000000   6.0000000   6.0000000
   6.0000000   6.0000000   6.0000000   6.0000000   6.0000000   6.0000000
   6.0000000   6.0000000   6.0000000
 TTTTTTTTTTTTTTTTTTTTTTTTTTTTTT MOQGAD      TELAPSE        3.26 TCPU        1.44
 TTTTTTTTTTTTTTTTTTTTTTTTTTTTTT SHELLXN     TELAPSE        3.77 TCPU        1.95
 TTTTTTTTTTTTTTTTTTTTTTTTTTTTTT MONMO3      TELAPSE        3.98 TCPU        2.16
 NUMERICALLY INTEGRATED DENSITY     89.9997288984
 TTTTTTTTTTTTTTTTTTTTTTTTTTTTTT NUMDFT      TELAPSE        4.12 TCPU        2.30
 CYC   0 ETOT(AU) -5.732056594455E+02 DETOT -5.73E+02 tst  0.00E+00 PX  1.00E+00
 TTTTTTTTTTTTTTTTTTTTTTTTTTTTTT DIIS        TELAPSE        4.13 TCPU        2.31
 TTTTTTTTTTTTTTTTTTTTTTTTTTTTTT FDIK        TELAPSE        4.30 TCPU        2.47
 INSULATING STATE
 TOP OF VALENCE BANDS -    BAND     45; K  227; EIG -2.5032456E-01 AU
 TOP OF VALENCE BANDS -    BAND     45; K    1; EIG -2.5032463E-01 AU
 BOTTOM OF VIRTUAL BANDS - BAND     46; K   80; EIG -2.4224620E-01 AU
 INDIRECT ENERGY BAND GAP:   0.2198 eV
 BOTTOM OF VIRTUAL BANDS - BAND     46; K    1; EIG -2.2467847E-01 AU
 TTTTTTTTTTTTTTTTTTTTTTTTTTTTTT PDIG        TELAPSE        4.34 TCPU        2.52
 CHARGE NORMALIZATION FACTOR   1.00000000
 TOTAL ATOMIC CHARGES:
   6.0098100   5.9300355   6.1725890   6.0946260   6.1976028   6.1312650
   6.0521554   6.1602258   6.0124603   6.0539906   5.9916789   5.8459058
   5.7749955   5.6452138   5.9274456
 TTTTTTTTTTTTTTTTTTTTTTTTTTTTTT MOQGAD      TELAPSE        4.34 TCPU        2.52
 TTTTTTTTTTTTTTTTTTTTTTTTTTTTTT SHELLXN     TELAPSE        4.93 TCPU        3.10
 TTTTTTTTTTTTTTTTTTTTTTTTTTTTTT MONMO3      TELAPSE        5.17 TCPU        3.34
 NUMERICALLY INTEGRATED DENSITY     89.9997212302
 TTTTTTTTTTTTTTTTTTTTTTTTTTTTTT NUMDFT      TELAPSE        5.55 TCPU        3.73
 CYC   1 ETOT(AU) -5.702288962692E+02 DETOT  2.98E+00 tst  0.00E+00 PX  1.00E+00
 TTTTTTTTTTTTTTTTTTTTTTTTTTTTTT DIIS        TELAPSE        5.57 TCPU        3.74
 DIIS TEST: 0.72607E+00 AT SCF   CYCLE   1 - MIX   30 %
 TTTTTTTTTTTTTTTTTTTTTTTTTTTTTT FDIK        TELAPSE        5.73 TCPU        3.91
 INSULATING STATE
 TOP OF VALENCE BANDS -    BAND     45; K  238; EIG -1.9114091E-01 AU
 TOP OF VALENCE BANDS -    BAND     45; K    1; EIG -1.9129124E-01 AU
 BOTTOM OF VIRTUAL BANDS - BAND     46; K   94; EIG -1.9051259E-01 AU
 INDIRECT ENERGY BAND GAP:   0.0171 eV
 BOTTOM OF VIRTUAL BANDS - BAND     46; K    1; EIG -1.7073242E-01 AU
 TTTTTTTTTTTTTTTTTTTTTTTTTTTTTT PDIG        TELAPSE        5.79 TCPU        3.96
 CHARGE NORMALIZATION FACTOR   1.00000000
 TOTAL ATOMIC CHARGES:
   5.8203259   5.9553694   5.6873548   5.7976115   5.8832767   6.0368387
   5.9558381   4.6042067   5.9591323   6.0290151   6.2163938   5.9839112
   6.6263343   7.2256654   6.2187262
 TTTTTTTTTTTTTTTTTTTTTTTTTTTTTT MOQGAD      TELAPSE        5.79 TCPU        3.96
 TTTTTTTTTTTTTTTTTTTTTTTTTTTTTT SHELLXN     TELAPSE        6.37 TCPU        4.54
 TTTTTTTTTTTTTTTTTTTTTTTTTTTTTT MONMO3      TELAPSE        6.61 TCPU        4.78
 NUMERICALLY INTEGRATED DENSITY     89.9996841403
 TTTTTTTTTTTTTTTTTTTTTTTTTTTTTT NUMDFT      TELAPSE        6.86 TCPU        5.03
 CYC   2 ETOT(AU) -5.694193320735E+02 DETOT  8.10E-01 tst  4.46E-02 PX  3.12E-01
 TTTTTTTTTTTTTTTTTTTTTTTTTTTTTT DIIS        TELAPSE        6.88 TCPU        5.05
 DIIS TEST: 0.59431E+01 AT SCF   CYCLE   2 - DIIS ACTIVE - HISTORY:     2 CYCLES
 TTTTTTTTTTTTTTTTTTTTTTTTTTTTTT FDIK        TELAPSE        7.11 TCPU        5.28
 POSSIBLY CONDUCTING STATE - EFERMI(AU) -1.8298556E-01 (RES. CHARGE  9.95E-14;IT. 10)
 TTTTTTTTTTTTTTTTTTTTTTTTTTTTTT PDIG        TELAPSE        7.20 TCPU        5.37
 CHARGE NORMALIZATION FACTOR   1.00000000
 TOTAL ATOMIC CHARGES:
   5.7682801   5.8019297   5.8613403   5.9178745   5.6741151   5.9038788
   5.9109113   6.6818939   6.1902415   5.9077611   6.1636568   6.1507617
   6.2177551   5.7392581   6.1103420
 TTTTTTTTTTTTTTTTTTTTTTTTTTTTTT MOQGAD      TELAPSE        7.20 TCPU        5.37
 TTTTTTTTTTTTTTTTTTTTTTTTTTTTTT SHELLXN     TELAPSE        7.79 TCPU        5.96
 TTTTTTTTTTTTTTTTTTTTTTTTTTTTTT MONMO3      TELAPSE        8.03 TCPU        6.19
 NUMERICALLY INTEGRATED DENSITY     89.9996863249
 TTTTTTTTTTTTTTTTTTTTTTTTTTTTTT NUMDFT      TELAPSE        8.42 TCPU        6.59
 CYC   3 ETOT(AU) -5.701304120818E+02 DETOT -7.11E-01 tst  9.45E-02 PX  4.32E-01
 TTTTTTTTTTTTTTTTTTTTTTTTTTTTTT DIIS        TELAPSE        8.43 TCPU        6.60
 DIIS TEST: 0.15548E+01 AT SCF   CYCLE   3 - DIIS ACTIVE - HISTORY:     3 CYCLES
 TTTTTTTTTTTTTTTTTTTTTTTTTTTTTT FDIK        TELAPSE        8.61 TCPU        6.78
 POSSIBLY CONDUCTING STATE - EFERMI(AU) -1.7430978E-01 (RES. CHARGE  3.84E-11;IT. 12)
 TTTTTTTTTTTTTTTTTTTTTTTTTTTTTT PDIG        TELAPSE        8.70 TCPU        6.86
 CHARGE NORMALIZATION FACTOR   1.00000000
 TOTAL ATOMIC CHARGES:
   5.9590783   5.9697669   5.9742036   6.0092901   6.4633813   6.1305701
   6.0459364   5.4248637   6.0428893   6.0927587   6.1270101   5.9064727
   5.8778442   5.8408456   6.1350888
 TTTTTTTTTTTTTTTTTTTTTTTTTTTTTT MOQGAD      TELAPSE        8.70 TCPU        6.86
 TTTTTTTTTTTTTTTTTTTTTTTTTTTTTT SHELLXN     TELAPSE        9.28 TCPU        7.45
 TTTTTTTTTTTTTTTTTTTTTTTTTTTTTT MONMO3      TELAPSE        9.52 TCPU        7.69
 NUMERICALLY INTEGRATED DENSITY     89.9996820933
 TTTTTTTTTTTTTTTTTTTTTTTTTTTTTT NUMDFT      TELAPSE        9.77 TCPU        7.93
 CYC   4 ETOT(AU) -5.702235143135E+02 DETOT -9.31E-02 tst  3.71E-02 PX  2.75E-01
 TTTTTTTTTTTTTTTTTTTTTTTTTTTTTT DIIS        TELAPSE        9.79 TCPU        7.95
 DIIS TEST: 0.83900E+00 AT SCF   CYCLE   4 - DIIS ACTIVE - HISTORY:     4 CYCLES
 TTTTTTTTTTTTTTTTTTTTTTTTTTTTTT FDIK        TELAPSE        9.97 TCPU        8.13
 INSULATING STATE
 TOP OF VALENCE BANDS -    BAND     45; K   30; EIG -1.9290064E-01 AU
 TOP OF VALENCE BANDS -    BAND     45; K    1; EIG -1.9386017E-01 AU
 BOTTOM OF VIRTUAL BANDS - BAND     46; K    5; EIG -1.9149796E-01 AU
 INDIRECT ENERGY BAND GAP:   0.0382 eV
 BOTTOM OF VIRTUAL BANDS - BAND     46; K    1; EIG -1.7903062E-01 AU
 TTTTTTTTTTTTTTTTTTTTTTTTTTTTTT PDIG        TELAPSE       10.02 TCPU        8.18
 CHARGE NORMALIZATION FACTOR   1.00000000
 TOTAL ATOMIC CHARGES:
   5.9448787   5.9355787   6.0262511   6.0584407   5.9054935   6.0820670
   6.0102557   6.0975658   5.9988864   6.0235999   6.0591011   5.8075943
   6.0058714   6.1275786   5.9168369
 TTTTTTTTTTTTTTTTTTTTTTTTTTTTTT MOQGAD      TELAPSE       10.02 TCPU        8.18
 TTTTTTTTTTTTTTTTTTTTTTTTTTTTTT SHELLXN     TELAPSE       10.61 TCPU        8.77
 TTTTTTTTTTTTTTTTTTTTTTTTTTTTTT MONMO3      TELAPSE       10.85 TCPU        9.00
 NUMERICALLY INTEGRATED DENSITY     89.9996911621
 TTTTTTTTTTTTTTTTTTTTTTTTTTTTTT NUMDFT      TELAPSE       11.09 TCPU        9.25
 CYC   5 ETOT(AU) -5.703169891260E+02 DETOT -9.35E-02 tst  8.33E-03 PX  1.78E-01
 TTTTTTTTTTTTTTTTTTTTTTTTTTTTTT DIIS        TELAPSE       11.11 TCPU        9.27
 DIIS TEST: 0.21675E+00 AT SCF   CYCLE   5 - DIIS ACTIVE - HISTORY:     5 CYCLES
 TTTTTTTTTTTTTTTTTTTTTTTTTTTTTT FDIK        TELAPSE       11.29 TCPU        9.45
 POSSIBLY CONDUCTING STATE - EFERMI(AU) -1.9461574E-01 (RES. CHARGE  1.63E-13;IT. 10)
 TTTTTTTTTTTTTTTTTTTTTTTTTTTTTT PDIG        TELAPSE       11.38 TCPU        9.53
 CHARGE NORMALIZATION FACTOR   1.00000000
 TOTAL ATOMIC CHARGES:
   5.9503725   5.8948327   6.0308586   5.9615317   6.1561729   6.0477734
   5.9628805   5.7744274   6.0195398   5.9959048   6.0740365   6.0056420
   6.1528920   5.9002816   6.0728536
 TTTTTTTTTTTTTTTTTTTTTTTTTTTTTT MOQGAD      TELAPSE       11.38 TCPU        9.53
 TTTTTTTTTTTTTTTTTTTTTTTTTTTTTT SHELLXN     TELAPSE       11.97 TCPU       10.12
 TTTTTTTTTTTTTTTTTTTTTTTTTTTTTT MONMO3      TELAPSE       12.20 TCPU       10.36
 NUMERICALLY INTEGRATED DENSITY     89.9996912946
 TTTTTTTTTTTTTTTTTTTTTTTTTTTTTT NUMDFT      TELAPSE       12.45 TCPU       10.61
 CYC   6 ETOT(AU) -5.703258431872E+02 DETOT -8.85E-03 tst  1.61E-03 PX  8.27E-02
 TTTTTTTTTTTTTTTTTTTTTTTTTTTTTT DIIS        TELAPSE       12.47 TCPU       10.62
 DIIS TEST: 0.13399E+00 AT SCF   CYCLE   6 - DIIS ACTIVE - HISTORY:     6 CYCLES
 TTTTTTTTTTTTTTTTTTTTTTTTTTTTTT FDIK        TELAPSE       12.65 TCPU       10.81
 INSULATING STATE
 TOP OF VALENCE BANDS -    BAND     45; K   30; EIG -1.9808407E-01 AU
 TOP OF VALENCE BANDS -    BAND     45; K    1; EIG -1.9822440E-01 AU
 BOTTOM OF VIRTUAL BANDS - BAND     46; K    5; EIG -1.9704680E-01 AU
 INDIRECT ENERGY BAND GAP:   0.0282 eV
 BOTTOM OF VIRTUAL BANDS - BAND     46; K    1; EIG -1.8481740E-01 AU
 TTTTTTTTTTTTTTTTTTTTTTTTTTTTTT PDIG        TELAPSE       12.70 TCPU       10.86
 CHARGE NORMALIZATION FACTOR   1.00000000
 TOTAL ATOMIC CHARGES:
   5.9087529   5.9236912   5.9669717   6.0069571   6.0718500   6.0462443
   5.9997861   6.0111986   6.0717417   6.0263448   6.1331764   5.9048957
   5.9047547   5.9446101   6.0790247
 TTTTTTTTTTTTTTTTTTTTTTTTTTTTTT MOQGAD      TELAPSE       12.70 TCPU       10.86
 TTTTTTTTTTTTTTTTTTTTTTTTTTTTTT SHELLXN     TELAPSE       13.29 TCPU       11.44
 TTTTTTTTTTTTTTTTTTTTTTTTTTTTTT MONMO3      TELAPSE       13.53 TCPU       11.68
 NUMERICALLY INTEGRATED DENSITY     89.9996954604
 TTTTTTTTTTTTTTTTTTTTTTTTTTTTTT NUMDFT      TELAPSE       13.91 TCPU       12.06
 CYC   7 ETOT(AU) -5.703384220775E+02 DETOT -1.26E-02 tst  6.28E-04 PX  4.97E-02
 TTTTTTTTTTTTTTTTTTTTTTTTTTTTTT DIIS        TELAPSE       13.93 TCPU       12.08
 DIIS TEST: 0.36490E-01 AT SCF   CYCLE   7 - DIIS ACTIVE - HISTORY:     7 CYCLES
 TTTTTTTTTTTTTTTTTTTTTTTTTTTTTT FDIK        TELAPSE       14.13 TCPU       12.27
 POSSIBLY CONDUCTING STATE - EFERMI(AU) -1.9579282E-01 (RES. CHARGE  1.05E-11;IT.  8)
 TTTTTTTTTTTTTTTTTTTTTTTTTTTTTT PDIG        TELAPSE       14.21 TCPU       12.36
 CHARGE NORMALIZATION FACTOR   1.00000000
 TOTAL ATOMIC CHARGES:
   5.9287329   5.9307836   5.9946416   6.0211933   6.0589826   6.0907699
   6.0141636   5.9205015   6.0365353   6.0290546   6.0861630   5.9255081
   6.0353452   5.9157443   6.0118806
 TTTTTTTTTTTTTTTTTTTTTTTTTTTTTT MOQGAD      TELAPSE       14.21 TCPU       12.36
 TTTTTTTTTTTTTTTTTTTTTTTTTTTTTT SHELLXN     TELAPSE       14.80 TCPU       12.94
 TTTTTTTTTTTTTTTTTTTTTTTTTTTTTT MONMO3      TELAPSE       15.04 TCPU       13.18
 NUMERICALLY INTEGRATED DENSITY     89.9996929921
 TTTTTTTTTTTTTTTTTTTTTTTTTTTTTT NUMDFT      TELAPSE       15.42 TCPU       13.56
 CYC   8 ETOT(AU) -5.703423493836E+02 DETOT -3.93E-03 tst  1.71E-04 PX  2.14E-02
 TTTTTTTTTTTTTTTTTTTTTTTTTTTTTT DIIS        TELAPSE       15.43 TCPU       13.58
 DIIS TEST: 0.80523E-02 AT SCF   CYCLE   8 - DIIS ACTIVE - HISTORY:     8 CYCLES
 TTTTTTTTTTTTTTTTTTTTTTTTTTTTTT FDIK        TELAPSE       15.60 TCPU       13.74
 INSULATING STATE
 TOP OF VALENCE BANDS -    BAND     45; K   30; EIG -1.9673857E-01 AU
 TOP OF VALENCE BANDS -    BAND     45; K    1; EIG -1.9790015E-01 AU
 BOTTOM OF VIRTUAL BANDS - BAND     46; K    5; EIG -1.9631189E-01 AU
 INDIRECT ENERGY BAND GAP:   0.0116 eV
 BOTTOM OF VIRTUAL BANDS - BAND     46; K    1; EIG -1.8417948E-01 AU
 TTTTTTTTTTTTTTTTTTTTTTTTTTTTTT PDIG        TELAPSE       15.65 TCPU       13.79
 CHARGE NORMALIZATION FACTOR   1.00000000
 TOTAL ATOMIC CHARGES:
   5.9356731   5.9126423   6.0107587   6.0094398   6.0912333   6.0573744
   5.9920052   5.9666124   6.0299313   6.0158457   6.0836580   5.9123032
   6.0215779   5.9395152   6.0214294
 TTTTTTTTTTTTTTTTTTTTTTTTTTTTTT MOQGAD      TELAPSE       15.65 TCPU       13.79
 TTTTTTTTTTTTTTTTTTTTTTTTTTTTTT SHELLXN     TELAPSE       16.23 TCPU       14.37
 TTTTTTTTTTTTTTTTTTTTTTTTTTTTTT MONMO3      TELAPSE       16.47 TCPU       14.61
 NUMERICALLY INTEGRATED DENSITY     89.9996930687
 TTTTTTTTTTTTTTTTTTTTTTTTTTTTTT NUMDFT      TELAPSE       16.72 TCPU       14.86
 CYC   9 ETOT(AU) -5.703433737921E+02 DETOT -1.02E-03 tst  2.15E-05 PX  1.55E-02
 TTTTTTTTTTTTTTTTTTTTTTTTTTTTTT DIIS        TELAPSE       16.74 TCPU       14.88
 DIIS TEST: 0.12487E-02 AT SCF   CYCLE   9 - DIIS ACTIVE - HISTORY:     9 CYCLES
 TTTTTTTTTTTTTTTTTTTTTTTTTTTTTT FDIK        TELAPSE       16.92 TCPU       15.06
 INSULATING STATE
 TOP OF VALENCE BANDS -    BAND     45; K   30; EIG -1.9650163E-01 AU
 TOP OF VALENCE BANDS -    BAND     45; K    1; EIG -1.9769214E-01 AU
 BOTTOM OF VIRTUAL BANDS - BAND     46; K    5; EIG -1.9639749E-01 AU
 INDIRECT ENERGY BAND GAP:   0.0028 eV
 BOTTOM OF VIRTUAL BANDS - BAND     46; K    1; EIG -1.8432432E-01 AU
 TTTTTTTTTTTTTTTTTTTTTTTTTTTTTT PDIG        TELAPSE       16.97 TCPU       15.10
 CHARGE NORMALIZATION FACTOR   1.00000000
 TOTAL ATOMIC CHARGES:
   5.9384572   5.9167695   6.0132578   6.0102069   6.0631188   6.0658224
   5.9959285   5.9485933   6.0345834   6.0155903   6.0891057   5.9249007
   6.0113281   5.9404089   6.0319283
 TTTTTTTTTTTTTTTTTTTTTTTTTTTTTT MOQGAD      TELAPSE       16.97 TCPU       15.11
 TTTTTTTTTTTTTTTTTTTTTTTTTTTTTT SHELLXN     TELAPSE       17.56 TCPU       15.69
 TTTTTTTTTTTTTTTTTTTTTTTTTTTTTT MONMO3      TELAPSE       17.80 TCPU       15.93
 NUMERICALLY INTEGRATED DENSITY     89.9996935702
 TTTTTTTTTTTTTTTTTTTTTTTTTTTTTT NUMDFT      TELAPSE       18.05 TCPU       16.18
 CYC  10 ETOT(AU) -5.703434977807E+02 DETOT -1.24E-04 tst  6.61E-06 PX  4.35E-03
 TTTTTTTTTTTTTTTTTTTTTTTTTTTTTT DIIS        TELAPSE       18.07 TCPU       16.20
 DIIS TEST: 0.33646E-03 AT SCF   CYCLE  10 - DIIS ACTIVE - HISTORY:    10 CYCLES
 TTTTTTTTTTTTTTTTTTTTTTTTTTTTTT FDIK        TELAPSE       18.26 TCPU       16.36
 INSULATING STATE
 TOP OF VALENCE BANDS -    BAND     45; K   30; EIG -1.9676800E-01 AU
 TOP OF VALENCE BANDS -    BAND     45; K    1; EIG -1.9796767E-01 AU
 BOTTOM OF VIRTUAL BANDS - BAND     46; K    5; EIG -1.9657602E-01 AU
 INDIRECT ENERGY BAND GAP:   0.0052 eV
 BOTTOM OF VIRTUAL BANDS - BAND     46; K    1; EIG -1.8440498E-01 AU
 TTTTTTTTTTTTTTTTTTTTTTTTTTTTTT PDIG        TELAPSE       18.31 TCPU       16.41
 CHARGE NORMALIZATION FACTOR   1.00000000
 TOTAL ATOMIC CHARGES:
   5.9348210   5.9205549   6.0086641   6.0086599   6.0698300   6.0598743
   5.9942740   5.9553238   6.0354492   6.0187656   6.0888608   5.9190540
   6.0184452   5.9381404   6.0292827
 TTTTTTTTTTTTTTTTTTTTTTTTTTTTTT MOQGAD      TELAPSE       18.31 TCPU       16.41
 TTTTTTTTTTTTTTTTTTTTTTTTTTTTTT SHELLXN     TELAPSE       18.90 TCPU       17.00
 TTTTTTTTTTTTTTTTTTTTTTTTTTTTTT MONMO3      TELAPSE       19.13 TCPU       17.24
 NUMERICALLY INTEGRATED DENSITY     89.9996936868
 TTTTTTTTTTTTTTTTTTTTTTTTTTTTTT NUMDFT      TELAPSE       19.51 TCPU       17.62
 CYC  11 ETOT(AU) -5.703435305088E+02 DETOT -3.27E-05 tst  1.04E-06 PX  1.70E-03
 TTTTTTTTTTTTTTTTTTTTTTTTTTTTTT DIIS        TELAPSE       19.54 TCPU       17.64
 DIIS TEST: 0.65432E-04 AT SCF   CYCLE  11 - DIIS ACTIVE - HISTORY:    11 CYCLES
 TTTTTTTTTTTTTTTTTTTTTTTTTTTTTT FDIK        TELAPSE       19.73 TCPU       17.83
 INSULATING STATE
 TOP OF VALENCE BANDS -    BAND     45; K   30; EIG -1.9676421E-01 AU
 TOP OF VALENCE BANDS -    BAND     45; K    1; EIG -1.9793808E-01 AU
 BOTTOM OF VIRTUAL BANDS - BAND     46; K    5; EIG -1.9659959E-01 AU
 INDIRECT ENERGY BAND GAP:   0.0045 eV
 BOTTOM OF VIRTUAL BANDS - BAND     46; K    1; EIG -1.8447272E-01 AU
 TTTTTTTTTTTTTTTTTTTTTTTTTTTTTT PDIG        TELAPSE       19.78 TCPU       17.87
 CHARGE NORMALIZATION FACTOR   1.00000000
 TOTAL ATOMIC CHARGES:
   5.9343003   5.9177544   6.0080882   6.0099538   6.0715729   6.0650724
   5.9947787   5.9545781   6.0347269   6.0174621   6.0882783   5.9194593
   6.0158169   5.9396902   6.0284673
 TTTTTTTTTTTTTTTTTTTTTTTTTTTTTT MOQGAD      TELAPSE       19.78 TCPU       17.87
 TTTTTTTTTTTTTTTTTTTTTTTTTTTTTT SHELLXN     TELAPSE       20.37 TCPU       18.46
 TTTTTTTTTTTTTTTTTTTTTTTTTTTTTT MONMO3      TELAPSE       20.60 TCPU       18.70
 NUMERICALLY INTEGRATED DENSITY     89.9996935688
 TTTTTTTTTTTTTTTTTTTTTTTTTTTTTT NUMDFT      TELAPSE       20.85 TCPU       18.95
 CYC  12 ETOT(AU) -5.703435373162E+02 DETOT -6.81E-06 tst  1.26E-07 PX  8.35E-04
 TTTTTTTTTTTTTTTTTTTTTTTTTTTTTT DIIS        TELAPSE       20.88 TCPU       18.97
 DIIS TEST: 0.96146E-05 AT SCF   CYCLE  12 - DIIS ACTIVE - HISTORY:    12 CYCLES
 TTTTTTTTTTTTTTTTTTTTTTTTTTTTTT FDIK        TELAPSE       21.04 TCPU       19.13
 INSULATING STATE
 TOP OF VALENCE BANDS -    BAND     45; K   30; EIG -1.9668664E-01 AU
 TOP OF VALENCE BANDS -    BAND     45; K    1; EIG -1.9787715E-01 AU
 BOTTOM OF VIRTUAL BANDS - BAND     46; K    5; EIG -1.9653576E-01 AU
 INDIRECT ENERGY BAND GAP:   0.0041 eV
 BOTTOM OF VIRTUAL BANDS - BAND     46; K    1; EIG -1.8443975E-01 AU
 TTTTTTTTTTTTTTTTTTTTTTTTTTTTTT PDIG        TELAPSE       21.09 TCPU       19.18
 CHARGE NORMALIZATION FACTOR   1.00000000
 TOTAL ATOMIC CHARGES:
   5.9349573   5.9179786   6.0082802   6.0102316   6.0712231   6.0630132
   5.9959888   5.9534227   6.0348761   6.0176100   6.0888118   5.9196366
   6.0154149   5.9398836   6.0286718
 TTTTTTTTTTTTTTTTTTTTTTTTTTTTTT MOQGAD      TELAPSE       21.09 TCPU       19.18
 TTTTTTTTTTTTTTTTTTTTTTTTTTTTTT SHELLXN     TELAPSE       21.68 TCPU       19.77
 TTTTTTTTTTTTTTTTTTTTTTTTTTTTTT MONMO3      TELAPSE       21.92 TCPU       20.00
 NUMERICALLY INTEGRATED DENSITY     89.9996935856
 TTTTTTTTTTTTTTTTTTTTTTTTTTTTTT NUMDFT      TELAPSE       22.17 TCPU       20.25
 CYC  13 ETOT(AU) -5.703435383567E+02 DETOT -1.04E-06 tst  4.22E-08 PX  3.23E-04
 TTTTTTTTTTTTTTTTTTTTTTTTTTTTTT DIIS        TELAPSE       22.19 TCPU       20.28
 DIIS TEST: 0.16493E-05 AT SCF   CYCLE  13 - DIIS ACTIVE - HISTORY:    13 CYCLES
 TTTTTTTTTTTTTTTTTTTTTTTTTTTTTT FDIK        TELAPSE       22.37 TCPU       20.45
 INSULATING STATE
 TOP OF VALENCE BANDS -    BAND     45; K   30; EIG -1.9668334E-01 AU
 TOP OF VALENCE BANDS -    BAND     45; K    1; EIG -1.9786732E-01 AU
 BOTTOM OF VIRTUAL BANDS - BAND     46; K    5; EIG -1.9653493E-01 AU
 INDIRECT ENERGY BAND GAP:   0.0040 eV
 BOTTOM OF VIRTUAL BANDS - BAND     46; K    1; EIG -1.8441880E-01 AU
 TTTTTTTTTTTTTTTTTTTTTTTTTTTTTT PDIG        TELAPSE       22.42 TCPU       20.50
 CHARGE NORMALIZATION FACTOR   1.00000000
 TOTAL ATOMIC CHARGES:
   5.9349598   5.9183553   6.0084731   6.0100560   6.0708810   6.0638071
   5.9954695   5.9538976   6.0346911   6.0178408   6.0888354   5.9193351
   6.0152558   5.9395164   6.0286262
 TTTTTTTTTTTTTTTTTTTTTTTTTTTTTT MOQGAD      TELAPSE       22.42 TCPU       20.51
 TTTTTTTTTTTTTTTTTTTTTTTTTTTTTT SHELLXN     TELAPSE       23.01 TCPU       21.09
 TTTTTTTTTTTTTTTTTTTTTTTTTTTTTT MONMO3      TELAPSE       23.24 TCPU       21.33
 NUMERICALLY INTEGRATED DENSITY     89.9996935726
 TTTTTTTTTTTTTTTTTTTTTTTTTTTTTT NUMDFT      TELAPSE       23.62 TCPU       21.71
 CYC  14 ETOT(AU) -5.703435385559E+02 DETOT -1.99E-07 tst  7.37E-09 PX  1.46E-04
 TTTTTTTTTTTTTTTTTTTTTTTTTTTTTT DIIS        TELAPSE       23.65 TCPU       21.73
 DIIS TEST: 0.21203E-06 AT SCF   CYCLE  14 - DIIS ACTIVE - HISTORY:    14 CYCLES
 TTTTTTTTTTTTTTTTTTTTTTTTTTTTTT FDIK        TELAPSE       23.83 TCPU       21.91
 INSULATING STATE
 TOP OF VALENCE BANDS -    BAND     45; K   30; EIG -1.9667920E-01 AU
 TOP OF VALENCE BANDS -    BAND     45; K    1; EIG -1.9786421E-01 AU
 BOTTOM OF VIRTUAL BANDS - BAND     46; K    5; EIG -1.9653040E-01 AU
 INDIRECT ENERGY BAND GAP:   0.0040 eV
 BOTTOM OF VIRTUAL BANDS - BAND     46; K    1; EIG -1.8441957E-01 AU
 TTTTTTTTTTTTTTTTTTTTTTTTTTTTTT PDIG        TELAPSE       23.88 TCPU       21.96
 CHARGE NORMALIZATION FACTOR   1.00000000
 TOTAL ATOMIC CHARGES:
   5.9349283   5.9183134   6.0084029   6.0101657   6.0709167   6.0636753
   5.9954961   5.9537454   6.0349092   6.0178211   6.0886365   5.9194492
   6.0152786   5.9395978   6.0286636
 TTTTTTTTTTTTTTTTTTTTTTTTTTTTTT MOQGAD      TELAPSE       23.88 TCPU       21.96
 TTTTTTTTTTTTTTTTTTTTTTTTTTTTTT SHELLXN     TELAPSE       24.46 TCPU       22.54
 TTTTTTTTTTTTTTTTTTTTTTTTTTTTTT MONMO3      TELAPSE       24.70 TCPU       22.78
 NUMERICALLY INTEGRATED DENSITY     89.9996935727
 TTTTTTTTTTTTTTTTTTTTTTTTTTTTTT NUMDFT      TELAPSE       24.95 TCPU       23.03
 CYC  15 ETOT(AU) -5.703435385718E+02 DETOT -1.59E-08 tst  3.95E-10 PX  3.97E-05
 TTTTTTTTTTTTTTTTTTTTTTTTTTTTTT DIIS        TELAPSE       24.97 TCPU       23.05
 DIIS TEST: 0.60186E-07 AT SCF   CYCLE  15 - DIIS ACTIVE - HISTORY:    15 CYCLES
 TTTTTTTTTTTTTTTTTTTTTTTTTTTTTT FDIK        TELAPSE       25.16 TCPU       23.23
 INSULATING STATE
 TOP OF VALENCE BANDS -    BAND     45; K   30; EIG -1.9668143E-01 AU
 TOP OF VALENCE BANDS -    BAND     45; K    1; EIG -1.9786603E-01 AU
 BOTTOM OF VIRTUAL BANDS - BAND     46; K    5; EIG -1.9653187E-01 AU
 INDIRECT ENERGY BAND GAP:   0.0041 eV
 BOTTOM OF VIRTUAL BANDS - BAND     46; K    1; EIG -1.8441991E-01 AU
 TTTTTTTTTTTTTTTTTTTTTTTTTTTTTT PDIG        TELAPSE       25.21 TCPU       23.28
 CHARGE NORMALIZATION FACTOR   1.00000000
 TOTAL ATOMIC CHARGES:
   5.9348947   5.9183015   6.0083980   6.0101335   6.0708889   6.0636917
   5.9955887   5.9538230   6.0348441   6.0177670   6.0887399   5.9194522
   6.0152703   5.9395617   6.0286448
 TTTTTTTTTTTTTTTTTTTTTTTTTTTTTT MOQGAD      TELAPSE       25.21 TCPU       23.28
 TTTTTTTTTTTTTTTTTTTTTTTTTTTTTT SHELLXN     TELAPSE       25.79 TCPU       23.87
 TTTTTTTTTTTTTTTTTTTTTTTTTTTTTT MONMO3      TELAPSE       26.03 TCPU       24.11
 NUMERICALLY INTEGRATED DENSITY     89.9996935743
 TTTTTTTTTTTTTTTTTTTTTTTTTTTTTT NUMDFT      TELAPSE       26.40 TCPU       24.48
 CYC  16 ETOT(AU) -5.703435385811E+02 DETOT -9.26E-09 tst  5.80E-11 PX  1.38E-05
 TTTTTTTTTTTTTTTTTTTTTTTTTTTTTT DIIS        TELAPSE       26.42 TCPU       24.50
 DIIS TEST: 0.27602E-08 AT SCF   CYCLE  16 - DIIS ACTIVE - HISTORY:    16 CYCLES
 TTTTTTTTTTTTTTTTTTTTTTTTTTTTTT FDIK        TELAPSE       26.61 TCPU       24.68
 INSULATING STATE
 TOP OF VALENCE BANDS -    BAND     45; K   30; EIG -1.9668143E-01 AU
 TOP OF VALENCE BANDS -    BAND     45; K    1; EIG -1.9786608E-01 AU
 BOTTOM OF VIRTUAL BANDS - BAND     46; K    5; EIG -1.9653198E-01 AU
 INDIRECT ENERGY BAND GAP:   0.0041 eV
 BOTTOM OF VIRTUAL BANDS - BAND     46; K    1; EIG -1.8441977E-01 AU
 TTTTTTTTTTTTTTTTTTTTTTTTTTTTTT PDIG        TELAPSE       26.66 TCPU       24.73
 CHARGE NORMALIZATION FACTOR   1.00000000
 TOTAL ATOMIC CHARGES:
   5.9349083   5.9182829   6.0083896   6.0101476   6.0708728   6.0636900
   5.9955693   5.9538326   6.0348412   6.0177886   6.0887484   5.9194587
   6.0152757   5.9395491   6.0286452
 TTTTTTTTTTTTTTTTTTTTTTTTTTTTTT MOQGAD      TELAPSE       26.66 TCPU       24.73
 TTTTTTTTTTTTTTTTTTTTTTTTTTTTTT SHELLXN     TELAPSE       27.24 TCPU       25.31
 TTTTTTTTTTTTTTTTTTTTTTTTTTTTTT MONMO3      TELAPSE       27.48 TCPU       25.55
 NUMERICALLY INTEGRATED DENSITY     89.9996935745
 TTTTTTTTTTTTTTTTTTTTTTTTTTTTTT NUMDFT      TELAPSE       27.73 TCPU       25.80
 CYC  17 ETOT(AU) -5.703435385804E+02 DETOT  6.44E-10 tst  5.81E-12 PX  3.41E-06
 TTTTTTTTTTTTTTTTTTTTTTTTTTTTTT DIIS        TELAPSE       27.76 TCPU       25.83
 DIIS TEST: 0.69758E-09 AT SCF   CYCLE  17 - DIIS ACTIVE - HISTORY:    17 CYCLES
 TTTTTTTTTTTTTTTTTTTTTTTTTTTTTT FDIK        TELAPSE       27.94 TCPU       26.01
 INSULATING STATE
 TOP OF VALENCE BANDS -    BAND     45; K   30; EIG -1.9668107E-01 AU
 TOP OF VALENCE BANDS -    BAND     45; K    1; EIG -1.9786580E-01 AU
 BOTTOM OF VIRTUAL BANDS - BAND     46; K    5; EIG -1.9653195E-01 AU
 INDIRECT ENERGY BAND GAP:   0.0041 eV
 BOTTOM OF VIRTUAL BANDS - BAND     46; K    1; EIG -1.8441978E-01 AU
 TTTTTTTTTTTTTTTTTTTTTTTTTTTTTT PDIG        TELAPSE       27.99 TCPU       26.06
 CHARGE NORMALIZATION FACTOR   1.00000000
 TOTAL ATOMIC CHARGES:
   5.9349075   5.9182910   6.0083912   6.0101400   6.0708725   6.0636983
   5.9955752   5.9538200   6.0348465   6.0177812   6.0887402   5.9194597
   6.0152748   5.9395539   6.0286479
 TTTTTTTTTTTTTTTTTTTTTTTTTTTTTT MOQGAD      TELAPSE       27.99 TCPU       26.06
 TTTTTTTTTTTTTTTTTTTTTTTTTTTTTT SHELLXN     TELAPSE       28.58 TCPU       26.65
 +++ ENERGIES IN A.U. +++
 ::: EXT EL-POLE                                  -7.9853627083719E+02
 ::: EXT EL-SPHEROPOLE                             6.0228001928966E+00
 ::: BIELET ZONE E-E                               1.1791453259880E+03
 ::: TOTAL E-E                                     3.8663185534375E+02
 ::: TOTAL E-N + N-E                              -1.5523122899690E+03
 ::: TOTAL N-N                                     1.0878311489848E+02
 ::: KINETIC ENERGY                                5.6651857626305E+02
 ::: PSEUDO TOTAL   ENERGY                        -4.9037874346376E+02
 ::: VIRIAL COEFFICIENT                            1.0720408987497E+00
 TTTTTTTTTTTTTTTTTTTTTTTTTTTTTT MONMO3      TELAPSE       28.81 TCPU       26.88
 NUMERICALLY INTEGRATED DENSITY     89.9996935742
 TTTTTTTTTTTTTTTTTTTTTTTTTTTTTT NUMDFT      TELAPSE       29.18 TCPU       27.25
 CYC  18 ETOT(AU) -5.703435385806E+02 DETOT -1.45E-10 tst  2.05E-12 PX  3.41E-06

 == SCF ENDED - CONVERGENCE ON ENERGY      E(AU) -5.7034353858058E+02 CYCLES  18


 ENERGY EXPRESSION=HARTREE+FOCK EXCH*0.00000+(PBE        EXCH)*1.00000+PBE        CORR


 TOTAL ENERGY(DFT)(AU)( 18) -5.7034353858058E+02 DE-1.4E-10 tester 2.0E-12
 TTTTTTTTTTTTTTTTTTTTTTTTTTTTTT EDFT        TELAPSE       29.18 TCPU       27.25

 *******************************************************************************
 *                             FORCE CALCULATION                               *
 *******************************************************************************

 TTTTTTTTTTTTTTTTTTTTTTTTTTTTTT NUMDFG      TELAPSE       29.80 TCPU       27.86
 INFORMATION **** EXCPOG **** EXCH. BIPO BUFFER LENGTH (WORDS) =           0
 INFORMATION **** GENPOG **** BIPO BUFFER LENGTH (WORDS) =     1097400
 TTTTTTTTTTTTTTTTTTTTTTTTTTTTTT SHELXG      TELAPSE       31.76 TCPU       29.83

 CARTESIAN FORCES IN HARTREE/BOHR (ANALYTICAL)
   ATOM                     X                   Y                   Z
   1   6             6.456648989855E-03 -1.020861204457E-02  9.076122742594E-03
   2   6             6.176059672959E-03 -2.154953003030E-03  4.039985725397E-02
   3   6            -8.992408620541E-04  1.343122296389E-04  2.574514160507E-03
   4   6            -2.329956287004E-02 -1.157407941820E-02 -7.565887375836E-02
   5   6             1.706718193936E-02  1.164373681679E-02  1.118696637794E-01
   6   6             4.118434656547E-03 -1.575228833504E-02 -1.436799673937E-01
   7   6            -2.619930431302E-02  1.924686914417E-02 -3.612365340915E-02
   8   6            -2.645626283194E-03  8.744261727208E-02  9.800150454944E-03
   9   6             9.777920802403E-04 -6.633132372315E-02  1.940452686763E-03
  10   6             6.297340307596E-03  2.698187941721E-02  6.981738311793E-02
  11   6             2.022207025292E-02 -3.555408620542E-02 -1.048020702341E-01
  12   6             1.291631671049E-02  1.739031313970E-03  9.940868181344E-02
  13   6             1.911941762832E-02 -3.360825613445E-02  8.312800191159E-02
  14   6            -2.035600357155E-02  3.614669643614E-03 -8.228231048171E-02
  15   6            -1.995152433831E-02  2.438048302626E-02  1.453204735599E-02

 RESULTANT FORCE     1.316724507205E-13 -1.385003223220E-13  9.561795799584E-14

 SYMMETRY ALLOWED FORCES (ANALYTICAL) (DIRECTION, FORCE)

    1  1.2492852E-02    2  5.0442001E-04    3  9.3946796E-03    4  6.0359247E-03
    5  4.4685021E-03    6  4.2597680E-02    7  7.7392488E-04    8 -3.5968442E-04
    9  6.6408880E-03   10 -2.6620287E-04   11 -2.6767380E-02   12 -7.4492702E-02
   13 -2.1173993E-04   14  1.9518247E-02   15  1.1507892E-01   16  1.7950359E-02
   17 -4.6812744E-03   18 -1.4214843E-01   19 -2.8158077E-02   20 -1.4521339E-02
   21 -4.4846075E-02   22 -8.2475282E-02   23  4.1792978E-02   24 -1.7560578E-03
   25  5.0564967E-02   26 -3.1399648E-02   27 -1.0517165E-02   28 -2.5781764E-02
   29  1.9003749E-02   30  6.1911375E-02   31  3.6758265E-02   32  1.7986379E-03
   33 -1.1940485E-01   34  5.9436201E-03   35  1.6547469E-02   36  8.1651273E-02
   37  4.9695616E-02   38  8.3353333E-03   39  9.5532658E-02   40  1.2573407E-02
   41 -7.5895157E-03   42 -6.8458089E-02
 TTTTTTTTTTTTTTTTTTTTTTTTTTTTTT TOTGRA      TELAPSE       32.74 TCPU       30.81
 INFORMATION **** opta001 **** GEOMETRY OUTPUT FILE
 CLASSICAL MODEL (SCHLEGEL) USED AS INITIAL HESSIAN MATRIX
 REFERENCE GEOMETRY DEFINED

 MAX GRADIENT      0.142148  THRESHOLD              0.000450 CONVERGED NO
 RMS GRADIENT      0.049241  THRESHOLD              0.000300 CONVERGED NO

 GRADIENT NORM     0.319117  GRADIENT THRESHOLD     0.500000

 EIGENVALUES OF THE ESTIMATED HESSIAN
  0.1195E-02  0.4063E-02  0.7557E-02  0.9842E-02  0.1389E-01  0.1972E-01
  0.2281E-01  0.3003E-01  0.4167E-01  0.4682E-01  0.6124E-01  0.7289E-01
  0.7672E-01  0.8520E-01  0.9482E-01  0.1177      0.1295      0.1353    
  0.1489      0.1693      0.1768      0.2282      0.2664      0.2924    
  0.3019      0.3337      0.4008      0.4238      0.4935      0.6033    
  0.6342      0.6705      0.7273      0.7582      0.8678      0.9140    
  0.9667       1.051       1.102       1.251       1.283       1.323    
 NEWTON STEP ( 0.5118816853E+02) EXCEEDS TRUST RADIUS ( 0.2000000000E+00)
 LEVEL SHIFT    -0.2974864248E+00

 INITIAL TRUST RADIUS    0.2000000000E+00

 PREDICTED ENERGY CHANGE    -0.555E-01

 INITIAL DISPLACEMENTS
  0.007471 -0.006624  0.008308 -0.001654 -0.002825  0.026241 -0.011329 -0.000190
  0.007378 -0.002350 -0.011282 -0.038826  0.016922  0.000877  0.073345  0.020679
  0.030449 -0.105425  0.003197 -0.008998 -0.022765 -0.030720  0.018863  0.001984
  0.016519 -0.009213 -0.012873 -0.018339  0.002093  0.022731  0.000238  0.005335
 -0.073416 -0.006111 -0.004373  0.034055  0.016762  0.001087  0.080414  0.002085
  0.001510 -0.049894
 TTTTTTTTTTTTTTTTTTTTTTTTTTTTTT OPTI        TELAPSE       32.75 TCPU       30.81

 OPTOPTOPTOPTOPTOPTOPTOPTOPTOPTOPTOPTOPTOPTOPTOPTOPTOPTOPTOPTOPTOPTOPTOPTOPTOPT

 - INFORMATION ON SCF MOVED TO SCFOUT.LOG
 GEOMETRY OPTIMIZATION INFORMATION STORED IN OPTINFO.DAT

 OPTOPTOPTOPTOPTOPTOPTOPTOPTOPTOPTOPTOPTOPTOPTOPTOPTOPTOPTOPTOPTOPTOPTOPTOPTOPT
 *******************************************************************************
 COORDINATE OPTIMIZATION - POINT    2
 *******************************************************************************
 LATTICE PARAMETERS (ANGSTROMS AND DEGREES) - BOHR = 0.5291772083 ANGSTROM
 PRIMITIVE CELL - CENTRING CODE 1/0 VOLUME=   412.228566 - DENSITY  0.725 g/cm^3
         A              B              C           ALPHA      BETA       GAMMA 
     7.40317242     7.40317242     8.68503800    90.000000  90.000000 120.000000
 *******************************************************************************
 ATOMS IN THE ASYMMETRIC UNIT   15 - ATOMS IN THE UNIT CELL:   15
     ATOM                 X/A                 Y/B                 Z/C    
 *******************************************************************************
      1 T   6 C     1.167228047139E-01 -1.502638184982E-01  2.933506500153E-01
      2 T   6 C     4.035806361095E-01  2.188867286478E-01  2.743591082133E-01
      3 T   6 C     4.553956438580E-01 -4.014372847725E-01  2.946168027582E-01
      4 T   6 C     4.883915105792E-01 -6.267457646504E-02  3.351234346999E-01
      5 T   6 C    -2.620948334237E-01 -4.744428777637E-01  2.309232541463E-01
      6 T   6 C    -1.864012364969E-01 -1.097959421399E-01  3.606542578661E-01
      7 T   6 C     1.876730838669E-01  6.925135228772E-02  2.801787917824E-01
      8 T   6 C     2.644445454780E-01 -4.280794590334E-01  3.196345293436E-01
      9 T   6 C     2.629954856496E-01 -2.163966096707E-01  3.109278084248E-01
     10 T   6 C    -4.373753964922E-01  1.545433950263E-01  3.047802725564E-01
     11 T   6 C    -4.792558480750E-01  4.472923848197E-01  2.975778554313E-01
     12 T   6 C    -3.967371483576E-01 -1.742015697941E-01  2.971639036236E-01
     13 T   6 C    -3.083857701188E-02  4.671815643761E-02  2.146914771968E-01
     14 T   6 C    -2.760279765950E-01  3.387735296579E-01  3.975974002127E-01
     15 T   6 C    -1.104726938041E-01 -2.581734087408E-01  2.884204537291E-01

 T = ATOM BELONGING TO THE ASYMMETRIC UNIT

 TOTAL ENERGY(DFT)(AU)( 15) -5.7040100820395E+02     DE (AU)   -5.747E-02

 UPDATED TRUST RADIUS     0.200E+00

 SYMMETRY ALLOWED FORCES  (COORDINATE, FORCE)

    1  1.4164489E-02    2 -9.6978792E-04    3  7.6209536E-03    4  3.1618110E-03
    5  4.4119702E-04    6  3.4413672E-02    7  1.0556658E-04    8 -1.7123550E-03
    9  5.8786272E-03   10  6.4861544E-04   11 -1.9794754E-02   12 -6.5102158E-02
   13 -1.7451286E-03   14  1.1369491E-02   15  1.1356694E-01   16  1.8865598E-02
   17 -1.9138456E-03   18 -1.3872227E-01   19 -2.4647245E-02   20 -1.3391794E-02
   21 -3.9579548E-02   22 -7.1649071E-02   23  3.5143785E-02   24 -2.2438542E-03
   25  4.1733083E-02   26 -2.9457613E-02   27 -1.0655521E-02   28 -2.4614081E-02
   29  8.8441299E-03   30  5.3382374E-02   31  2.8325635E-02   32  4.5083834E-03
   33 -1.0732612E-01   34  1.8940752E-03   35  1.0343348E-02   36  6.8113114E-02
   37  4.1517187E-02   38  5.9799311E-03   39  9.5348223E-02   40  1.1077529E-02
   41 -2.9729559E-03   42 -6.7424974E-02

 GRADIENT NORM     0.293869  GRADIENT THRESHOLD     0.500000

 EIGENVALUES OF THE ESTIMATED HESSIAN
  0.9504E-03  0.3863E-02  0.7498E-02  0.8720E-02  0.1390E-01  0.1911E-01
  0.2163E-01  0.2961E-01  0.3757E-01  0.4556E-01  0.5867E-01  0.7202E-01
  0.7582E-01  0.8372E-01  0.9345E-01  0.1192      0.1306      0.1367    
  0.1536      0.1665      0.1798      0.2434      0.2616      0.2679    
  0.2946      0.3351      0.3983      0.4287      0.4891      0.5942    
  0.6222      0.6753      0.7229      0.7437      0.8704      0.9129    
  0.9919       1.076       1.106       1.253       1.289       1.321    
 NEWTON STEP ( 0.1380100451E+03) EXCEEDS TRUST RADIUS ( 0.2000000000E+00)
 LEVEL SHIFT    -0.6483398801E+00

 PREDICTED ENERGY CHANGE    -0.553E-01

 MAX GRADIENT      0.138722  THRESHOLD              0.000450 CONVERGED NO
 RMS GRADIENT      0.045345  THRESHOLD              0.000300 CONVERGED NO
 MAX DISPLAC.      0.104240  THRESHOLD              0.001800 CONVERGED NO
 RMS DISPLAC.      0.030861  THRESHOLD              0.001200 CONVERGED NO
 TTTTTTTTTTTTTTTTTTTTTTTTTTTTTT OPTI        TELAPSE       59.45 TCPU       57.33
 *******************************************************************************
 COORDINATE OPTIMIZATION - POINT    3
 *******************************************************************************
 LATTICE PARAMETERS (ANGSTROMS AND DEGREES) - BOHR = 0.5291772083 ANGSTROM
 PRIMITIVE CELL - CENTRING CODE 1/0 VOLUME=   412.228566 - DENSITY  0.725 g/cm^3
         A              B              C           ALPHA      BETA       GAMMA 
     7.40317242     7.40317242     8.68503800    90.000000  90.000000 120.000000
 *******************************************************************************
 ATOMS IN THE ASYMMETRIC UNIT   15 - ATOMS IN THE UNIT CELL:   15
     ATOM                 X/A                 Y/B                 Z/C    
 *******************************************************************************
      1 T   6 C     1.172423075074E-01 -1.506397446383E-01  2.935749453140E-01
      2 T   6 C     4.032874233880E-01  2.186474141239E-01  2.753897645373E-01
      3 T   6 C     4.549291409029E-01 -4.014067233041E-01  2.947604489134E-01
      4 T   6 C     4.881951618467E-01 -6.331675408630E-02  3.327917619869E-01
      5 T   6 C    -2.617955099278E-01 -4.743805889148E-01  2.360228760729E-01
      6 T   6 C    -1.848067404598E-01 -1.089830510198E-01  3.542122407300E-01
      7 T   6 C     1.867256420666E-01  6.866247477257E-02  2.790709886660E-01
      8 T   6 C     2.627201172671E-01 -4.265458396488E-01  3.199035785254E-01
      9 T   6 C     2.639055305020E-01 -2.176050437640E-01  3.108609857121E-01
     10 T   6 C    -4.386440261046E-01  1.544345983835E-01  3.069510604009E-01
     11 T   6 C    -4.784459501343E-01  4.478148211798E-01  2.941044870900E-01
     12 T   6 C    -3.969657465834E-01 -1.744190174436E-01  3.001179097847E-01
     13 T   6 C    -2.924887072482E-02  4.703236645602E-02  2.190274036963E-01
     14 T   6 C    -2.758615806694E-01  3.391635482494E-01  3.939192575240E-01
     15 T   6 C    -1.112368988781E-01 -2.584584603468E-01  2.892922910458E-01

 T = ATOM BELONGING TO THE ASYMMETRIC UNIT

 TOTAL ENERGY(DFT)(AU)( 15) -5.7045588074522E+02     DE (AU)   -5.487E-02

 UPDATED TRUST RADIUS     0.200E+00

 SYMMETRY ALLOWED FORCES  (COORDINATE, FORCE)

    1  1.4057921E-02    2 -3.5943751E-03    3  6.7419959E-03    4 -6.9869462E-04
    5 -2.5017015E-03    6  2.8181215E-02    7 -3.8999330E-03    8 -1.5242312E-03
    9  6.6349713E-03   10  1.2678616E-03   11 -1.2914835E-02   12 -5.4652510E-02
   13  1.4576392E-03   14  3.4627914E-03   15  1.1053601E-01   16  1.8826367E-02
   17  2.5927516E-03   18 -1.2969025E-01   19 -1.7485157E-02   20 -1.1715972E-02
   21 -3.3276114E-02   22 -5.6806702E-02   23  2.7791116E-02   24 -2.8200736E-03
   25  3.0601093E-02   26 -2.4528693E-02   27 -1.0329131E-02   28 -2.4287178E-02
   29  5.2900987E-04   30  4.4005770E-02   31  1.5485628E-02   32  4.5469421E-03
   33 -9.3550437E-02   34 -2.6229118E-03   35  2.2197775E-03   36  5.5412756E-02
   37  3.2615950E-02   38  4.2480596E-03   39  9.1744474E-02   40  7.8732518E-03
   41  2.3167763E-03   42 -6.5592556E-02

 GRADIENT NORM     0.263399  GRADIENT THRESHOLD     0.500000

 EIGENVALUES OF THE ESTIMATED HESSIAN
  0.1132E-02  0.3971E-02  0.7304E-02  0.9276E-02  0.1390E-01  0.1952E-01
  0.2219E-01  0.2970E-01  0.3741E-01  0.4641E-01  0.5944E-01  0.7208E-01
  0.7572E-01  0.8268E-01  0.9314E-01  0.1196      0.1303      0.1361    
  0.1532      0.1663      0.1766      0.2453      0.2592      0.2670    
  0.2941      0.3354      0.3968      0.4287      0.4877      0.5852    
  0.6188      0.6607      0.7235      0.7429      0.8678      0.9127    
  0.9977       1.080       1.108       1.253       1.290       1.321    
 NEWTON STEP ( 0.7156228070E+02) EXCEEDS TRUST RADIUS ( 0.2000000000E+00)
 LEVEL SHIFT    -0.3919208248E+00

 PREDICTED ENERGY CHANGE    -0.493E-01

 MAX GRADIENT      0.129690  THRESHOLD              0.000450 CONVERGED NO
 RMS GRADIENT      0.040643  THRESHOLD              0.000300 CONVERGED NO
 MAX DISPLAC.      0.104264  THRESHOLD              0.001800 CONVERGED NO
 RMS DISPLAC.      0.030861  THRESHOLD              0.001200 CONVERGED NO
 TTTTTTTTTTTTTTTTTTTTTTTTTTTTTT OPTI        TELAPSE       86.05 TCPU       83.69
 *******************************************************************************
 COORDINATE OPTIMIZATION - POINT    4
 *******************************************************************************
 LATTICE PARAMETERS (ANGSTROMS AND DEGREES) - BOHR = 0.5291772083 ANGSTROM
 PRIMITIVE CELL - CENTRING CODE 1/0 VOLUME=   412.228566 - DENSITY  0.725 g/cm^3
         A              B              C           ALPHA      BETA       GAMMA 
     7.40317242     7.40317242     8.68503800    90.000000  90.000000 120.000000
 *******************************************************************************
 ATOMS IN THE ASYMMETRIC UNIT   15 - ATOMS IN THE UNIT CELL:   15
     ATOM                 X/A                 Y/B                 Z/C    
 *******************************************************************************
      1 T   6 C     1.177499887846E-01 -1.511229583658E-01  2.938142345435E-01
      2 T   6 C     4.026281591009E-01  2.182626975078E-01  2.762621273461E-01
      3 T   6 C     4.542917278833E-01 -4.013660817290E-01  2.950435501060E-01
      4 T   6 C     4.881032252313E-01 -6.365844131258E-02  3.308145853188E-01
      5 T   6 C    -2.614640072653E-01 -4.750424898004E-01  2.416077687007E-01
      6 T   6 C    -1.830050827260E-01 -1.077705966912E-01  3.476852224522E-01
      7 T   6 C     1.859813648599E-01  6.802027706267E-02  2.781501248306E-01
      8 T   6 C     2.611747764832E-01 -4.253438022945E-01  3.200020985126E-01
      9 T   6 C     2.644897363894E-01 -2.186360163103E-01  3.107423207013E-01
     10 T   6 C    -4.401213922773E-01  1.541170086037E-01  3.086180853431E-01
     11 T   6 C    -4.783233140183E-01  4.482394044421E-01  2.910300226941E-01
     12 T   6 C    -3.974099901857E-01 -1.748117721345E-01  3.025402414408E-01
     13 T   6 C    -2.753203549929E-02  4.770781910618E-02  2.234755061949E-01
     14 T   6 C    -2.750448134342E-01  3.402516848211E-01  3.898536986947E-01
     15 T   6 C    -1.115183433279E-01 -2.588467329066E-01  2.903604131205E-01

 T = ATOM BELONGING TO THE ASYMMETRIC UNIT

 ENERGY DIFFERENCE WITH RESPECT TO FIRST CALCULATION USING
 THE PRESENT REFERENCE GEOMETRY:  1.123421646367E-01

 REFERENCE GEOMETRY WILL BE CHANGED

 TOTAL ENERGY(DFT)(AU)( 14) -5.7050477487400E+02     DE (AU)   -4.889E-02

 SYMMETRY ALLOWED FORCES  (COORDINATE, FORCE)

    1  1.2556780E-02    2 -5.5329160E-03    3  6.0340159E-03    4 -3.5959976E-03
    5 -3.4092634E-03    6  2.2729753E-02    7 -4.1897596E-03    8 -5.0198708E-04
    9  6.8150528E-03   10  1.9390708E-03   11 -8.0394078E-03   12 -4.6002724E-02
   13  4.2598654E-03   14 -2.8981415E-03   15  1.0784922E-01   16  1.5191373E-02
   17  2.7870120E-03   18 -1.1723758E-01   19 -1.2223742E-02   20 -1.0243665E-02
   21 -2.7136917E-02   22 -4.7522709E-02   23  1.9842511E-02   24 -2.8013638E-03
   25  2.2330328E-02   26 -2.0543171E-02   27 -8.6701435E-03   28 -2.4193670E-02
   29 -4.8497616E-03   30  3.7237321E-02   31  5.0872849E-03   32  1.7388026E-03
   33 -7.9077269E-02   34 -4.8031627E-03   35 -2.7093568E-03   36  4.5964398E-02
   37  2.5636874E-02   38  4.9576676E-03   39  8.6001663E-02   40  5.0774816E-03
   41  8.2020727E-03   42 -6.4162159E-02

 GRADIENT NORM     0.236667  GRADIENT THRESHOLD     0.500000

 HESSIAN UPDATE SKIPPED

 EIGENVALUES OF THE ESTIMATED HESSIAN
  0.1132E-02  0.3971E-02  0.7304E-02  0.9276E-02  0.1390E-01  0.1952E-01
  0.2219E-01  0.2970E-01  0.3741E-01  0.4641E-01  0.5944E-01  0.7208E-01
  0.7572E-01  0.8268E-01  0.9314E-01  0.1196      0.1303      0.1361    
  0.1532      0.1663      0.1766      0.2453      0.2592      0.2670    
  0.2941      0.3354      0.3968      0.4287      0.4877      0.5852    
  0.6188      0.6607      0.7235      0.7429      0.8678      0.9127    
  0.9977       1.080       1.108       1.253       1.290       1.321    
 NEWTON STEP ( 0.6803237300E+02) EXCEEDS TRUST RADIUS ( 0.2000000000E+00)
 LEVEL SHIFT    -0.3719685094E+00

 PREDICTED ENERGY CHANGE    -0.447E-01

 MAX GRADIENT      0.117238  THRESHOLD              0.000450 CONVERGED NO
 RMS GRADIENT      0.036519  THRESHOLD              0.000300 CONVERGED NO
 MAX DISPLAC.      0.102318  THRESHOLD              0.001800 CONVERGED NO
 RMS DISPLAC.      0.030861  THRESHOLD              0.001200 CONVERGED NO
 TTTTTTTTTTTTTTTTTTTTTTTTTTTTTT OPTI        TELAPSE      113.70 TCPU      111.06
 *******************************************************************************
 COORDINATE OPTIMIZATION - POINT    5
 *******************************************************************************
 LATTICE PARAMETERS (ANGSTROMS AND DEGREES) - BOHR = 0.5291772083 ANGSTROM
 PRIMITIVE CELL - CENTRING CODE 1/0 VOLUME=   412.228566 - DENSITY  0.725 g/cm^3
         A              B              C           ALPHA      BETA       GAMMA 
     7.40317242     7.40317242     8.68503800    90.000000  90.000000 120.000000
 *******************************************************************************
 ATOMS IN THE ASYMMETRIC UNIT   15 - ATOMS IN THE UNIT CELL:   15
     ATOM                 X/A                 Y/B                 Z/C    
 *******************************************************************************
      1 T   6 C     1.182018479911E-01 -1.516567538591E-01  2.940432728341E-01
      2 T   6 C     4.018615323264E-01  2.178649008116E-01  2.770297926921E-01
      3 T   6 C     4.536364350019E-01 -4.013090263087E-01  2.953513465394E-01
      4 T   6 C     4.880628339764E-01 -6.390833064911E-02  3.289932167799E-01
      5 T   6 C    -2.611083245267E-01 -4.760573334107E-01  2.474328623758E-01
      6 T   6 C    -1.812680078064E-01 -1.065020628107E-01  3.412400819961E-01
      7 T   6 C     1.853571574195E-01  6.738500091454E-02  2.773280900570E-01
      8 T   6 C     2.596439398384E-01 -4.243456079882E-01  3.200203003688E-01
      9 T   6 C     2.649702809009E-01 -2.195639424868E-01  3.106283884034E-01
     10 T   6 C    -4.416501382629E-01  1.537748991221E-01  3.100590324015E-01
     11 T   6 C    -4.785210979162E-01  4.485490271671E-01  2.882360720590E-01
     12 T   6 C    -3.978825588563E-01 -1.752346143600E-01  3.046565593555E-01
     13 T   6 C    -2.571608452672E-02  4.868068082949E-02  2.279285549739E-01
     14 T   6 C    -2.739059339336E-01  3.417087700763E-01  3.855235172708E-01
     15 T   6 C    -1.116818816272E-01 -2.593856070489E-01  2.915289118923E-01

 T = ATOM BELONGING TO THE ASYMMETRIC UNIT

 TOTAL ENERGY(DFT)(AU)( 15) -5.7054852061766E+02     DE (AU)   -4.375E-02

 UPDATED TRUST RADIUS     0.200E+00

 SYMMETRY ALLOWED FORCES  (COORDINATE, FORCE)

    1  1.0111308E-02    2 -7.4263315E-03    3  5.6007691E-03    4 -5.9666219E-03
    5 -3.1004366E-03    6  1.7868322E-02    7 -3.3892449E-03    8  5.9003198E-04
    9  7.7273959E-03   10  2.7934022E-03   11 -3.6168068E-03   12 -3.8362448E-02
   13  6.4322416E-03   14 -8.1216949E-03   15  1.0475475E-01   16  7.3527814E-03
   17 -2.7191292E-03   18 -1.0050150E-01   19 -8.6957969E-03   20 -9.1450953E-03
   21 -2.0610905E-02   22 -4.0644617E-02   23  1.1016479E-02   24 -2.7726143E-03
   25  1.4418584E-02   26 -1.7462772E-02   27 -6.1448927E-03   28 -2.4290747E-02
   29 -9.2975527E-03   30  3.2533593E-02   31 -4.9132189E-03   32 -2.9995442E-03
   33 -6.4087205E-02   34 -5.7345244E-03   35 -6.3268229E-03   36  3.9038729E-02
   37  2.0948056E-02   38  9.2535659E-03   39  7.6680717E-02   40  2.0687148E-03
   41  1.3372917E-02   42 -6.2736336E-02

 GRADIENT NORM     0.210408  GRADIENT THRESHOLD     0.500000

 EIGENVALUES OF THE ESTIMATED HESSIAN
  0.1308E-02  0.4208E-02  0.6587E-02  0.1078E-01  0.1376E-01  0.1961E-01
  0.2362E-01  0.2881E-01  0.3700E-01  0.4928E-01  0.6595E-01  0.7136E-01
  0.7673E-01  0.8022E-01  0.9358E-01  0.1203      0.1259      0.1352    
  0.1533      0.1698      0.1834      0.2464      0.2610      0.2862    
  0.2985      0.3359      0.3919      0.4219      0.4881      0.5864    
  0.6206      0.6542      0.7325      0.7602      0.8649      0.9130    
   1.008       1.091       1.108       1.253       1.289       1.320    
 NEWTON STEP ( 0.1876307007E+02) EXCEEDS TRUST RADIUS ( 0.2000000000E+00)
 LEVEL SHIFT    -0.7869495696E-01

 PREDICTED ENERGY CHANGE    -0.368E-01

 MAX GRADIENT      0.104755  THRESHOLD              0.000450 CONVERGED NO
 RMS GRADIENT      0.032467  THRESHOLD              0.000300 CONVERGED NO
 MAX DISPLAC.      0.121081  THRESHOLD              0.001800 CONVERGED NO
[...]
   8 C    1     2.3497     4.4403    4 C    0 0 0
   8 C    1     2.5962     4.9060   11 C    0 0 0
   8 C    1     2.6020     4.9171    1 C    0 0 0

   9 C    1     1.4159     2.6757    1 C    0 0 0
   9 C    1     1.4213     2.6858    8 C    0 0 0
   9 C    1     1.5002     2.8350    4 C    0 0 0
   9 C    1     2.3380     4.4181    3 C    0 0 0
   9 C    1     2.3700     4.4786   12 C    0 0 0
   9 C    1     2.5236     4.7690    7 C    0 1 0

  10 C    1     1.4169     2.6776    4 C    0-1 0
  10 C    1     1.4209     2.6851   14 C    0 0 0
  10 C    1     1.4979     2.8307    2 C    0 0 0
  10 C    1     2.3371     4.4164    5 C    0 0 0
  10 C    1     2.3677     4.4744   11 C    0 0 0
  10 C    1     2.5227     4.7672    7 C    0 0 0

  11 C    1     1.4164     2.6766    3 C    0 0 0
  11 C    1     1.4389     2.7190    2 C    0 0 0
  11 C    1     1.4977     2.8302    5 C    0 0 0
  11 C    1     2.3445     4.4305   14 C    0 0 0
  11 C    1     2.3677     4.4744   10 C    0 0 0
  11 C    1     2.5248     4.7712   15 C    0 0 0

  12 C    1     1.4161     2.6760    6 C    0 0 0
  12 C    1     1.4392     2.7197    4 C    0 0 0
  12 C    1     1.4989     2.8325    3 C    0 0 0
  12 C    1     2.3487     4.4385    8 C    0 0 0
  12 C    1     2.3700     4.4786    9 C    0 0 0
  12 C    1     2.5244     4.7705   15 C    0 0 0

  13 C    1     1.4179     2.6794    7 C    1 0 0
  13 C    1     1.4215     2.6863    6 C    0-1 0
  13 C    1     2.3478     4.4367    1 C    1-1 0
  13 C    1     2.3491     4.4392   15 C    0-1 0
  13 C    1     2.5955     4.9048    2 C    1 0 0
  13 C    1     2.6034     4.9198   12 C    0-1 0

  14 C    1     1.4203     2.6841    5 C    0 0 0
  14 C    1     1.4209     2.6851   10 C    0 0 0
  14 C    1     2.3445     4.4305   11 C    0 0 0
  14 C    1     2.3449     4.4312    2 C    0 0 0
  14 C    1     2.6015     4.9160   15 C    0 0 0
  14 C    1     2.6028     4.9185    4 C    0-1 0

  15 C    1     1.4168     2.6774    5 C    0 0 0
  15 C    1     1.4390     2.7193    1 C    1 0 0
  15 C    1     1.5002     2.8349    6 C    0 0 0
  15 C    1     2.3491     4.4392   13 C    0 1 0
  15 C    1     2.3682     4.4753    7 C    1 1 0
  15 C    1     2.5244     4.7705   12 C    0 0 0


 FINAL OPTIMIZED GEOMETRY - DIMENSIONALITY OF THE SYSTEM      3
 (NON PERIODIC DIRECTION: LATTICE PARAMETER FORMALLY SET TO 500)
 *******************************************************************************
 LATTICE PARAMETERS (ANGSTROMS AND DEGREES) - BOHR = 0.5291772083 ANGSTROM
 PRIMITIVE CELL - CENTRING CODE 1/0 VOLUME=   412.228566 - DENSITY  0.725 g/cm^3
         A              B              C           ALPHA      BETA       GAMMA 
     7.40317242     7.40317242     8.68503800    90.000000  90.000000 120.000000
 *******************************************************************************
 ATOMS IN THE ASYMMETRIC UNIT   15 - ATOMS IN THE UNIT CELL:   15
     ATOM                 X/A                 Y/B                 Z/C    
 *******************************************************************************
      1 T   6 C     1.121709323915E-01 -1.567879507693E-01  3.009726315045E-01
      2 T   6 C     3.980049134998E-01  2.211200327453E-01  2.973469552963E-01
      3 T   6 C     4.443167499570E-01 -4.048026488338E-01  2.993747531144E-01
      4 T   6 C     4.898559165388E-01 -6.454090588393E-02  3.005961298633E-01
      5 T   6 C    -2.618959911404E-01 -4.843813258643E-01  3.033456008562E-01
      6 T   6 C    -1.821514382699E-01 -1.103591420697E-01  2.971459888835E-01
      7 T   6 C     1.824157068917E-01  7.143890329517E-02  2.985611535933E-01
      8 T   6 C     2.444463229682E-01 -4.227996306562E-01  2.929629589509E-01
      9 T   6 C     2.615404382129E-01 -2.229243747241E-01  2.976411720524E-01
     10 T   6 C    -4.441029440394E-01  1.510960494088E-01  3.034162642192E-01
     11 T   6 C    -4.897949247416E-01  4.455430112897E-01  2.974051685423E-01
     12 T   6 C    -3.976986540690E-01 -1.765756265316E-01  3.006140531849E-01
     13 T   6 C     7.302848300677E-04  8.929179087973E-02  2.896411100116E-01
     14 T   6 C    -2.455653481266E-01  3.334362867516E-01  3.198823239186E-01
     15 T   6 C    -1.122719649046E-01 -2.687544690387E-01  3.010937360084E-01

 T = ATOM BELONGING TO THE ASYMMETRIC UNIT
 INFORMATION **** fort.34 **** GEOMETRY OUTPUT FILE

 DIRECT LATTICE VECTORS CARTESIAN COMPONENTS (ANGSTROM)
          X                    Y                    Z
   0.370158621205E+01  -0.641133538787E+01   0.000000000000E+00
   0.370158621205E+01   0.641133538787E+01   0.000000000000E+00
   0.000000000000E+00   0.000000000000E+00   0.868503800000E+01


 CARTESIAN COORDINATES - PRIMITIVE CELL
 *******************************************************************************
 *      ATOM          X(ANGSTROM)         Y(ANGSTROM)         Z(ANGSTROM)
 *******************************************************************************
    1     6 C     3.536432472000E+00  4.686949782379E+00  2.613958741576E+00
    2     6 C     2.291744364557E+00 -1.134068295561E+00  2.582469605932E+00
    3     6 C     3.847851063949E+00  9.673461378755E-01  2.600081107039E+00
    4     6 C     5.275926391268E+00  2.856911421348E+00  2.610688810516E+00
    5     6 C     4.640762597110E+00 -1.426428099798E+00  2.634568070569E+00
    6     6 C     6.320419293036E+00  4.602844892051E-01  2.580724205001E+00
    7     6 C     9.396647249332E-01 -7.115095081314E-01  2.593014964282E+00
    8     6 C     3.041396067439E+00  2.133397792985E+00  2.544394431081E+00
    9     6 C     3.844526900224E+00  3.305268988509E+00  2.585024889640E+00
   10     6 C     2.616995930850E+00 -2.595315018351E+00  2.635181784561E+00
   11     6 C     3.537783939360E+00 -4.145701789757E-01  2.582975190186E+00
   12     6 C     5.277446665094E+00  1.417693891523E+00  2.610844475244E+00
   13     6 C     4.034810686278E+00 -5.843537870131E+00  2.515544046813E+00
   14     6 C     4.026848066904E+00 -2.699161716540E+00  2.778190138761E+00
   15     6 C     5.992770229789E+00 -1.003261816337E+00  2.615010538795E+00

 ****    1 SYMMOPS - TRANSLATORS IN FRACTIONAL UNITS
 **** MATRICES AND TRANSLATORS IN THE CRYSTALLOGRAPHIC REFERENCE FRAME
   V INV                    ROTATION MATRICES                   TRANSLATORS
   1   1  1.00  0.00  0.00  0.00  1.00  0.00  0.00  0.00  1.00  0.00  0.00  0.00
 TTTTTTTTTTTTTTTTTTTTTTTTTTTTTT END         TELAPSE      972.41 TCPU      961.45
 EEEEEEEEEE TERMINATION  DATE 01 11 2022 TIME 21:56:40.0
NODE    0 CPU TIME =       961.449
    TOTAL CPU TIME =    123531.629
Note: The following floating-point exceptions are signalling: IEEE_UNDERFLOW_FLAG IEEE_DENORMAL
Note: The following floating-point exceptions are signalling: IEEE_UNDERFLOW_FLAG IEEE_DENORMAL
Note: The following floating-point exceptions are signalling: IEEE_UNDERFLOW_FLAG IEEE_DENORMAL
Note: The following floating-point exceptions are signalling: IEEE_UNDERFLOW_FLAG IEEE_DENORMAL
Note: The following floating-point exceptions are signalling: IEEE_UNDERFLOW_FLAG IEEE_DENORMAL
Note: The following floating-point exceptions are signalling: IEEE_UNDERFLOW_FLAG IEEE_DENORMAL
Note: The following floating-point exceptions are signalling: IEEE_UNDERFLOW_FLAG IEEE_DENORMAL
Note: The following floating-point exceptions are signalling: IEEE_UNDERFLOW_FLAG IEEE_DENORMAL
Note: The following floating-point exceptions are signalling: IEEE_UNDERFLOW_FLAG IEEE_DENORMAL
Note: The following floating-point exceptions are signalling: IEEE_UNDERFLOW_FLAG IEEE_DENORMAL
Note: The following floating-point exceptions are signalling: IEEE_UNDERFLOW_FLAG IEEE_DENORMAL
Note: The following floating-point exceptions are signalling: IEEE_UNDERFLOW_FLAG IEEE_DENORMAL
Note: The following floating-point exceptions are signalling: IEEE_UNDERFLOW_FLAG IEEE_DENORMAL
Note: The following floating-point exceptions are signalling: IEEE_UNDERFLOW_FLAG IEEE_DENORMAL
Note: The following floating-point exceptions are signalling: IEEE_UNDERFLOW_FLAG IEEE_DENORMAL
Note: The following floating-point exceptions are signalling: IEEE_UNDERFLOW_FLAG IEEE_DENORMAL
Note: The following floating-point exceptions are signalling: IEEE_UNDERFLOW_FLAG IEEE_DENORMAL
Note: The following floating-point exceptions are signalling: IEEE_UNDERFLOW_FLAG IEEE_DENORMAL
Note: The following floating-point exceptions are signalling: IEEE_UNDERFLOW_FLAG IEEE_DENORMAL
Note: The following floating-point exceptions are signalling: IEEE_UNDERFLOW_FLAG IEEE_DENORMAL
Note: The following floating-point exceptions are signalling: IEEE_UNDERFLOW_FLAG IEEE_DENORMAL
Note: The following floating-point exceptions are signalling: IEEE_UNDERFLOW_FLAG IEEE_DENORMAL
Note: The following floating-point exceptions are signalling: IEEE_UNDERFLOW_FLAG IEEE_DENORMAL
Note: The following floating-point exceptions are signalling: IEEE_UNDERFLOW_FLAG IEEE_DENORMAL
Note: The following floating-point exceptions are signalling: IEEE_UNDERFLOW_FLAG IEEE_DENORMAL
Note: The following floating-point exceptions are signalling: IEEE_UNDERFLOW_FLAG IEEE_DENORMAL
Note: The following floating-point exceptions are signalling: IEEE_UNDERFLOW_FLAG IEEE_DENORMAL
Note: The following floating-point exceptions are signalling: IEEE_UNDERFLOW_FLAG IEEE_DENORMAL
Note: The following floating-point exceptions are signalling: IEEE_UNDERFLOW_FLAG IEEE_DENORMAL
Note: The following floating-point exceptions are signalling: IEEE_UNDERFLOW_FLAG IEEE_DENORMAL
Note: The following floating-point exceptions are signalling: IEEE_UNDERFLOW_FLAG IEEE_DENORMAL
Note: The following floating-point exceptions are signalling: IEEE_UNDERFLOW_FLAG IEEE_DENORMAL
Note: The following floating-point exceptions are signalling: IEEE_UNDERFLOW_FLAG IEEE_DENORMAL
Note: The following floating-point exceptions are signalling: IEEE_UNDERFLOW_FLAG IEEE_DENORMAL
Note: The following floating-point exceptions are signalling: IEEE_UNDERFLOW_FLAG IEEE_DENORMAL
Note: The following floating-point exceptions are signalling: IEEE_UNDERFLOW_FLAG IEEE_DENORMAL
Note: The following floating-point exceptions are signalling: IEEE_UNDERFLOW_FLAG IEEE_DENORMAL
Note: The following floating-point exceptions are signalling: IEEE_UNDERFLOW_FLAG IEEE_DENORMAL
Note: The following floating-point exceptions are signalling: IEEE_UNDERFLOW_FLAG IEEE_DENORMAL
Note: The following floating-point exceptions are signalling: IEEE_UNDERFLOW_FLAG IEEE_DENORMAL
Note: The following floating-point exceptions are signalling: IEEE_UNDERFLOW_FLAG IEEE_DENORMAL
Note: The following floating-point exceptions are signalling: IEEE_UNDERFLOW_FLAG IEEE_DENORMAL
Note: The following floating-point exceptions are signalling: IEEE_UNDERFLOW_FLAG IEEE_DENORMAL
Note: The following floating-point exceptions are signalling: IEEE_UNDERFLOW_FLAG IEEE_DENORMAL
Note: The following floating-point exceptions are signalling: IEEE_UNDERFLOW_FLAG IEEE_DENORMAL
Note: The following floating-point exceptions are signalling: IEEE_UNDERFLOW_FLAG IEEE_DENORMAL
Note: The following floating-point exceptions are signalling: IEEE_UNDERFLOW_FLAG IEEE_DENORMAL
Note: The following floating-point exceptions are signalling: IEEE_UNDERFLOW_FLAG IEEE_DENORMAL
Note: The following floating-point exceptions are signalling: IEEE_UNDERFLOW_FLAG IEEE_DENORMAL
Note: The following floating-point exceptions are signalling: IEEE_UNDERFLOW_FLAG IEEE_DENORMAL
Note: The following floating-point exceptions are signalling: IEEE_UNDERFLOW_FLAG IEEE_DENORMAL
Note: The following floating-point exceptions are signalling: IEEE_UNDERFLOW_FLAG IEEE_DENORMAL
Note: The following floating-point exceptions are signalling: IEEE_UNDERFLOW_FLAG IEEE_DENORMAL
Note: The following floating-point exceptions are signalling: IEEE_UNDERFLOW_FLAG IEEE_DENORMAL
Note: The following floating-point exceptions are signalling: IEEE_UNDERFLOW_FLAG IEEE_DENORMAL
Note: The following floating-point exceptions are signalling: IEEE_UNDERFLOW_FLAG IEEE_DENORMAL
Note: The following floating-point exceptions are signalling: IEEE_UNDERFLOW_FLAG IEEE_DENORMAL
Note: The following floating-point exceptions are signalling: IEEE_UNDERFLOW_FLAG IEEE_DENORMAL
Note: The following floating-point exceptions are signalling: IEEE_UNDERFLOW_FLAG IEEE_DENORMAL
Note: The following floating-point exceptions are signalling: IEEE_UNDERFLOW_FLAG IEEE_DENORMAL
Note: The following floating-point exceptions are signalling: IEEE_UNDERFLOW_FLAG IEEE_DENORMAL
Note: The following floating-point exceptions are signalling: IEEE_UNDERFLOW_FLAG IEEE_DENORMAL
Note: The following floating-point exceptions are signalling: IEEE_UNDERFLOW_FLAG IEEE_DENORMAL
Note: The following floating-point exceptions are signalling: IEEE_UNDERFLOW_FLAG IEEE_DENORMAL
Note: The following floating-point exceptions are signalling: IEEE_UNDERFLOW_FLAG IEEE_DENORMAL
Note: The following floating-point exceptions are signalling: IEEE_UNDERFLOW_FLAG IEEE_DENORMAL
Note: The following floating-point exceptions are signalling: IEEE_UNDERFLOW_FLAG IEEE_DENORMAL
Note: The following floating-point exceptions are signalling: IEEE_UNDERFLOW_FLAG IEEE_DENORMAL
Note: The following floating-point exceptions are signalling: IEEE_UNDERFLOW_FLAG IEEE_DENORMAL
Note: The following floating-point exceptions are signalling: IEEE_UNDERFLOW_FLAG IEEE_DENORMAL
Note: The following floating-point exceptions are signalling: IEEE_UNDERFLOW_FLAG IEEE_DENORMAL
Note: The following floating-point exceptions are signalling: IEEE_UNDERFLOW_FLAG IEEE_DENORMAL
Note: The following floating-point exceptions are signalling: IEEE_UNDERFLOW_FLAG IEEE_DENORMAL
Note: The following floating-point exceptions are signalling: IEEE_UNDERFLOW_FLAG IEEE_DENORMAL
Note: The following floating-point exceptions are signalling: IEEE_UNDERFLOW_FLAG IEEE_DENORMAL
Note: The following floating-point exceptions are signalling: IEEE_UNDERFLOW_FLAG IEEE_DENORMAL
Note: The following floating-point exceptions are signalling: IEEE_UNDERFLOW_FLAG IEEE_DENORMAL
Note: The following floating-point exceptions are signalling: IEEE_UNDERFLOW_FLAG IEEE_DENORMAL
Note: The following floating-point exceptions are signalling: IEEE_UNDERFLOW_FLAG IEEE_DENORMAL
Note: The following floating-point exceptions are signalling: IEEE_UNDERFLOW_FLAG IEEE_DENORMAL
Note: The following floating-point exceptions are signalling: IEEE_UNDERFLOW_FLAG IEEE_DENORMAL
Note: The following floating-point exceptions are signalling: IEEE_UNDERFLOW_FLAG IEEE_DENORMAL
Note: The following floating-point exceptions are signalling: IEEE_UNDERFLOW_FLAG IEEE_DENORMAL
Note: The following floating-point exceptions are signalling: IEEE_UNDERFLOW_FLAG IEEE_DENORMAL
Note: The following floating-point exceptions are signalling: IEEE_UNDERFLOW_FLAG IEEE_DENORMAL
Note: The following floating-point exceptions are signalling: IEEE_UNDERFLOW_FLAG IEEE_DENORMAL
Note: The following floating-point exceptions are signalling: IEEE_UNDERFLOW_FLAG IEEE_DENORMAL
Note: The following floating-point exceptions are signalling: IEEE_UNDERFLOW_FLAG IEEE_DENORMAL
Note: The following floating-point exceptions are signalling: IEEE_UNDERFLOW_FLAG IEEE_DENORMAL
Note: The following floating-point exceptions are signalling: IEEE_UNDERFLOW_FLAG IEEE_DENORMAL
Note: The following floating-point exceptions are signalling: IEEE_UNDERFLOW_FLAG IEEE_DENORMAL
Note: The following floating-point exceptions are signalling: IEEE_UNDERFLOW_FLAG IEEE_DENORMAL
Note: The following floating-point exceptions are signalling: IEEE_UNDERFLOW_FLAG IEEE_DENORMAL
Note: The following floating-point exceptions are signalling: IEEE_UNDERFLOW_FLAG IEEE_DENORMAL
Note: The following floating-point exceptions are signalling: IEEE_UNDERFLOW_FLAG IEEE_DENORMAL
Note: The following floating-point exceptions are signalling: IEEE_UNDERFLOW_FLAG IEEE_DENORMAL
Note: The following floating-point exceptions are signalling: IEEE_UNDERFLOW_FLAG IEEE_DENORMAL
Note: The following floating-point exceptions are signalling: IEEE_UNDERFLOW_FLAG IEEE_DENORMAL
Note: The following floating-point exceptions are signalling: IEEE_UNDERFLOW_FLAG IEEE_DENORMAL
Note: The following floating-point exceptions are signalling: IEEE_UNDERFLOW_FLAG IEEE_DENORMAL
Note: The following floating-point exceptions are signalling: IEEE_UNDERFLOW_FLAG IEEE_DENORMAL
Note: The following floating-point exceptions are signalling: IEEE_UNDERFLOW_FLAG IEEE_DENORMAL
Note: The following floating-point exceptions are signalling: IEEE_UNDERFLOW_FLAG IEEE_DENORMAL
Note: The following floating-point exceptions are signalling: IEEE_UNDERFLOW_FLAG IEEE_DENORMAL
Note: The following floating-point exceptions are signalling: IEEE_UNDERFLOW_FLAG IEEE_DENORMAL
Note: The following floating-point exceptions are signalling: IEEE_UNDERFLOW_FLAG IEEE_DENORMAL
Note: The following floating-point exceptions are signalling: IEEE_UNDERFLOW_FLAG IEEE_DENORMAL
Note: The following floating-point exceptions are signalling: IEEE_UNDERFLOW_FLAG IEEE_DENORMAL
Note: The following floating-point exceptions are signalling: IEEE_UNDERFLOW_FLAG IEEE_DENORMAL
Note: The following floating-point exceptions are signalling: IEEE_UNDERFLOW_FLAG IEEE_DENORMAL
Note: The following floating-point exceptions are signalling: IEEE_UNDERFLOW_FLAG IEEE_DENORMAL
Note: The following floating-point exceptions are signalling: IEEE_UNDERFLOW_FLAG IEEE_DENORMAL
Note: The following floating-point exceptions are signalling: IEEE_UNDERFLOW_FLAG IEEE_DENORMAL
Note: The following floating-point exceptions are signalling: IEEE_UNDERFLOW_FLAG IEEE_DENORMAL
Note: The following floating-point exceptions are signalling: IEEE_UNDERFLOW_FLAG IEEE_DENORMAL
Note: The following floating-point exceptions are signalling: IEEE_UNDERFLOW_FLAG IEEE_DENORMAL
Note: The following floating-point exceptions are signalling: IEEE_UNDERFLOW_FLAG IEEE_DENORMAL
Note: The following floating-point exceptions are signalling: IEEE_UNDERFLOW_FLAG IEEE_DENORMAL
Note: The following floating-point exceptions are signalling: IEEE_UNDERFLOW_FLAG IEEE_DENORMAL
Note: The following floating-point exceptions are signalling: IEEE_UNDERFLOW_FLAG IEEE_DENORMAL
Note: The following floating-point exceptions are signalling: IEEE_UNDERFLOW_FLAG IEEE_DENORMAL
Note: The following floating-point exceptions are signalling: IEEE_UNDERFLOW_FLAG IEEE_DENORMAL
Note: The following floating-point exceptions are signalling: IEEE_UNDERFLOW_FLAG IEEE_DENORMAL
Note: The following floating-point exceptions are signalling: IEEE_UNDERFLOW_FLAG IEEE_DENORMAL
Note: The following floating-point exceptions are signalling: IEEE_UNDERFLOW_FLAG IEEE_DENORMAL
Note: The following floating-point exceptions are signalling: IEEE_UNDERFLOW_FLAG IEEE_DENORMAL
Note: The following floating-point exceptions are signalling: IEEE_UNDERFLOW_FLAG IEEE_DENORMAL
Note: The following floating-point exceptions are signalling: IEEE_UNDERFLOW_FLAG IEEE_DENORMAL
end_date Tue Nov  1 21:56:40 GMT 2022
 
TEMPORARY          SAVED (in /mnt/lustre/a2fs-work2/work/e05/e05/bcamino/quantum_computing/test_model/optgeom)
fort.34            graphene_3v_G.gui 1492     Nov 1 21:56
fort.33            graphene_3v_G.xyz 33433    Nov 1 21:56
fort.9             graphene_3v_G.f9  1553880  Nov 1 21:56
fort.98            graphene_3v_G.f98 4044343  Nov 1 21:56
SCFOUT.LOG         graphene_3v_G.SCFLOG781039   Nov 1 21:56
OPTINFO.DAT        graphene_3v_G.OPTINFO11906031 Nov 1 21:56
HESSOPT.DAT        graphene_3v_G.HESSOPT37485    Nov 1 21:56
opta001            opta002            
Disk usage:<du -m>
480	/mnt/lustre/a2fs-work2/work/e05/e05/bcamino/quantum_computing/test_model/optgeom/tmp_graphene_3v_G_
</du -m>
Filesystem                                          1K-blocks          Used     Available Use% Mounted on
10.253.102.2@o2ib1:10.253.102.3@o2ib1:/cls01097 3582178503216 1747287260452 1798672027692  50% /mnt/lustre/a2fs-work2
10.253.102.2@o2ib1:10.253.102.3@o2ib1:/cls01097 3582178503216 1747287260452 1798672027692  50% /mnt/lustre/a2fs-work2
