date:                Tue Nov  1 22:29:10 GMT 2022
hostname:            nid005097
system:              Linux nid005097 4.12.14-197.78_9.1.64-cray_shasta_c #1 SMP Wed Aug 25 14:56:40 UTC 2021 (4e2a900) x86_64 x86_64 x86_64 GNU/Linux
user:                bcamino
input:               /mnt/lustre/a2fs-work2/work/e05/e05/bcamino/quantum_computing/test_model/optgeom/graphene_3v_N.d12
output:              /mnt/lustre/a2fs-work2/work/e05/e05/bcamino/quantum_computing/test_model/optgeom/graphene_3v_N.out
executable script:   /work/e05/e05/bcamino/runCRYSTAL/Pcry_slurm
executable:          Pcrystal
Command:             srun --hint=nomultithread --distribution=block:block Pcrystal
Slurm JobID:         
temporary directory: /mnt/lustre/a2fs-work2/work/e05/e05/bcamino/quantum_computing/test_model/optgeom/tmp_graphene_3v_N_      
input data /mnt/lustre/a2fs-work2/work/e05/e05/bcamino/quantum_computing/test_model/optgeom/graphene_3v_N.d12
Final
EXTERNAL
SYMMREMO
OPTGEOM
ATOMONLY
MAXTRADIUS
0.2
TRUSTRADIUS
0.25
MAXCYCLE
500
END
END
6 8
0 0 6 2.0 1.0
  13575.349682      0.00022245814352
  2035.2333680      0.00172327382520
  463.22562359      0.00892557153140
  131.20019598      0.03572798450200
  42.853015891      0.11076259931000
  15.584185766      0.24295627626000
0 0 2 2.0 1.0
  6.2067138508      0.41440263448000
  2.5764896527      0.23744968655000
0 0 1 0.0 1.0
  0.4941102000      1.00000000000000
0 0 1 0.0 1.0
  0.1644071000      1.00000000000000
0 2 4 2.0 1.0
  34.697232244      0.00533336578050
  7.9582622826      0.03586410909200
  2.3780826883      0.14215873329000
  0.8143320818      0.34270471845000
0 2 1 0.0 1.0
  0.5662417100      1.00000000000000
0 2 1 0.0 1.0
  0.1973545000      1.00000000000000
0 3 1 0.0 1.0
  0.5791584200      1.00000000000000
99 0
ENDBS
DFT
PBE  
ENDDFT
TOLINTEG
8 8 8 8 16
SCFDIR
SHRINK
8 16  
MAXCYCLE
200
TOLDEE
9 
ENDSCF
input data /mnt/lustre/a2fs-work2/work/e05/e05/bcamino/quantum_computing/test_model/optgeom/graphene_3v_N.gui
         128 PROCESSORS WORKING

         
 *******************************************************************************
 *                                                                             *
 *                               CRYSTAL17                                     *
 *                      public : 1.0.2 - March 1st, 2018 STFC/Archer2 build    *
 *                       HTTP://WWW.CRYSTAL.UNITO.IT                           *
 *                                                                             *
 *                              MAIN AUTHORS                                   *
 *                                                                             *
 *  R. DOVESI(1,11), V.R. SAUNDERS(2), C. ROETTI(1,11), R. ORLANDO(1,11),      *
 *  C.M. ZICOVICH-WILSON(1,3), F. PASCALE(4), B. CIVALLERI(1,11),              *
 *  K. DOLL(5), N.M. HARRISON(2,6), I.J. BUSH(7), Ph. D'ARCO(8),               *
 *  M. LLUNELL(9), M. CAUSA'(10), Y. NOEL(8), L. MASCHIO(1,11), A. ERBA(1,11)  *
 *  M. RE'RAT(14), S. CASASSA(1,11)                                            *
 *                                                                             *
 *        CONTRIBUTIONS TO THE CODE HAVE ALSO BEEN GIVEN BY                    *
 *                                                                             *
 *  M. FERRABONE(1,11), M. DE LA PIERRE(1,11), M. FERRERO(1,11),               *
 *  J. BAIMA(1,11), E. ALBANESE(1,11), M.F. PEINTINGER(12), R. BAST(13),       *
 *  B. KIRTMAN(15), V. LACIVITA(1,11), R. DEMICHELIS(1,16)                     *
 *  G. BRANDEBURG(17), S. SALUSTRO(1,11), G. SANSONE(1,11)                     *
 *  M.T. RUGGIERO(18)                                                          *
 *                                                                             *
 * (1) THEORETICAL CHEMISTRY GROUP - UNIVERSITA' DI TORINO - TORINO (ITALY)    *
 * (2) COMPUTATIONAL SCIENCE & ENGINEERING DEPARTMENT - STFC DARESBURY (UK)    *
 * (3) UNIVERSIDAD AUTONOMA DEL ESTADO DE MORELOS - CUERNAVACA (MEXICO)        *
 * (4) UNIVERSITE' DE LORRAINE - NANCY (FRANCE)                                *
 * (5) UNIVERSITAET STUTTGART- STUTTGART (GERMANY)                             *
 * (6) IMPERIAL COLLEGE - LONDON (UK)                                          *
 * (7) OXFORD E-RESEARCH CENTRE - OXFORD (UK)                                  *
 * (8) UPMC - SORBONNE UNIVERSITES - PARIS (FRANCE)                            *
 * (9) UNIVERSIDAD DE BARCELONA - BARCELONA (SPAIN)                            *
 *(10) UNIVERSITA' DI NAPOLI "FEDERICO II" - NAPOLI (ITALY)                    *
 *(11) NIS - NANOSTRUCTURED INTERFACES AND SURFACES - TORINO (ITALY)           *
 *(12) MPI FUER CHEMISCHE ENERGIEKONVERSION - MUELHEIM AN DER RUHR (GERMANY)   *
 *(13) UNIVERSITY OF TROMSO - TROMSO (NORWAY)                                  *
 *(14) UNIVERSITE' DE PAU ET DES PAYS DE L'ADOUR - PAU (FRANCE)                *
 *(15) UNIVERSITY OF CALIFORNIA SANTA BARBARA - SANTA BARBARA (USA)            *
 *(16) CURTIN UNIVERSITY - PERTH (AUSTRALIA)                                   *
 *(17) UNIVERSITY COLLEGE LONDON - LONDON (UK)                                 *
 *(18) CAMBRIDGE UNIVERSITY - CAMBRIDGE (UK)                                   *
 *                                                                             *
 *******************************************************************************
 EEEEEEEEEE STARTING  DATE 01 11 2022 TIME 22:29:14.9
 Final                                                                           

 GEOMETRY INPUT FROM EXTERNAL FILE (FORTRAN UNIT 34)
 3D - CRYSTAL 

 *******************************************************************************
 LATTICE PARAMETERS  (ANGSTROMS AND DEGREES) - PRIMITIVE CELL
       A          B          C        ALPHA      BETA     GAMMA        VOLUME
    7.40317    7.40317    8.68504    90.00000  90.00000 120.00000    412.228566
 INFORMATION **** CHKGRP **** SPGR WITH NO INVERSION

 NUMBER OF IRREDUCIBLE ATOMS IN THE CELL:   15

 CARTESIAN COORDINATES (ANGSTROM) - IRREDUCIBLE ATOMS AND SYMMETRY RELATED

 AT.IRR.  AT  AT.N.          X                   Y                   Z
     1     1     6    1.233862070683E+00  7.123705986520E-01  2.605511400000E+00
     2     2     6    2.467724141366E+00 -1.424741197304E+00  2.605511400000E+00
     3     3     6    3.701586212049E+00  7.123705986520E-01  2.605511400000E+00
     4     4     6    4.935448282733E+00  2.849482394607E+00  2.605511400000E+00
     5     5     6    3.701586212049E+00 -3.561852993259E+00  2.605511400000E+00
     6     6     6    4.935448282733E+00 -1.424741197304E+00  2.605511400000E+00
     7     7     6    6.169310353416E+00  7.123705986520E-01  2.605511400000E+00
     8     8     6    1.233862070683E+00 -7.123705986520E-01  2.605511400000E+00
     9     9     6    2.467724141366E+00  1.424741197304E+00  2.605511400000E+00
    10    10     6    3.701586212049E+00  3.561852993259E+00  2.605511400000E+00
    11    11     6    2.467724141366E+00 -2.849482394607E+00  2.605511400000E+00
    12    12     6    3.701586212049E+00 -7.123705986520E-01  2.605511400000E+00
    13    13     6    4.935448282733E+00  1.424741197304E+00  2.605511400000E+00
    14    14     6    4.935448282733E+00 -2.849482394607E+00  2.605511400000E+00
    15    15     6    6.169310353416E+00 -7.123705986520E-01  2.605511400000E+00

 SPACE  GROUP  N.                     :    1
 NUMBER OF SYMMETRY OPERATORS         :    1
 *******************************************************************************
 LATTICE PARAMETERS (ANGSTROMS AND DEGREES) - BOHR = 0.5291772083 ANGSTROM
 PRIMITIVE CELL - CENTRING CODE 1/0 VOLUME=   412.228566 - DENSITY  0.725 g/cm^3
         A              B              C           ALPHA      BETA       GAMMA 
     7.40317242     7.40317242     8.68503800    90.000000  90.000000 120.000000
 *******************************************************************************
 ATOMS IN THE ASYMMETRIC UNIT   15 - ATOMS IN THE UNIT CELL:   15
     ATOM                 X/A                 Y/B                 Z/C    
 *******************************************************************************
      1 T   6 C     1.111111111111E-01  2.222222222222E-01  3.000000000000E-01
      2 T   6 C     4.444444444445E-01  2.222222222222E-01  3.000000000000E-01
      3 T   6 C     4.444444444444E-01 -4.444444444444E-01  3.000000000000E-01
      4 T   6 C     4.444444444446E-01 -1.111111111110E-01  3.000000000000E-01
      5 T   6 C    -2.222222222222E-01  2.222222222222E-01  3.000000000000E-01
      6 T   6 C    -2.222222222221E-01 -4.444444444443E-01  3.000000000000E-01
      7 T   6 C    -2.222222222221E-01 -1.111111111110E-01  3.000000000000E-01
      8 T   6 C     2.222222222222E-01  1.111111111111E-01  3.000000000000E-01
      9 T   6 C     2.222222222222E-01  4.444444444445E-01  3.000000000000E-01
     10 T   6 C     2.222222222222E-01 -2.222222222222E-01  3.000000000000E-01
     11 T   6 C    -4.444444444445E-01  1.111111111111E-01  3.000000000000E-01
     12 T   6 C    -4.444444444444E-01  4.444444444444E-01  3.000000000000E-01
     13 T   6 C    -4.444444444443E-01 -2.222222222221E-01  3.000000000000E-01
     14 T   6 C    -1.111111111110E-01  4.444444444446E-01  3.000000000000E-01
     15 T   6 C    -1.111111111110E-01 -2.222222222221E-01  3.000000000000E-01

 T = ATOM BELONGING TO THE ASYMMETRIC UNIT
 *******************************************************************************
 * GEOMETRY EDITING - INPUT COORDINATES ARE GIVEN IN ANGSTROM         
 *******************************************************************************

 USE OF SYMMETRY WILL BE SUBSEQUENTLY SUSPENDED
 INFORMATION **** NEW DEFAULT **** FINALRUN 4 FOR GEOMETRY OPTIMIZATIONS
 INFORMATION **** NEW DEFAULT **** OPTGEOM OPTIMIZES BOTH ATOMIC COORDINATES AND CELL PARAMETERS
 INFORMATION **** NEW DEFAULT **** TOL. ON ATOMIC DISP TO REDEFINE REF. GEOMETRY: 0.8 Angs
 INFORMATION **** NEW DEFAULT **** N POINTS TO REDEFINE REF. GEOMETRY: N OF OPT DEGS OF FREEDOM
 INFORMATION **** NEW DEFAULT **** TOL. ON ENERGY TO REDEFINE REF. GEOMETRY: 10**-3*(5*N. ATOMS)
 INFORMATION **** ATOMONLY **** ONLY ATOMIC COORDINATES ARE OPTIMIZED
 INFORMATION **** MAXTRADIUS **** MAX ALLOWED TRUST RADIUS  2.000000E-01
 INFORMATION **** TRUSTRADIUS ****  INITIAL VALUE FOR TRUST RADIUS MODIFIED  2.500000E-01
 INFORMATION **** MAXCYCLE ****   MAXIMUM NUMBER OF OPTIMIZATION CYCLES         500

 IMPORTANT INFORMATION:
 THE COORDINATE SYSTEM ADOPTED IN THE OPTIMIZATION IS NOT IN
 GENERAL HOMOGENEOUS UNITS. FOR THIS REASON THE GRADIENT AND 
 HESSIAN MATRIX IN TERMS OF THIS SYSTEM ARE GIVEN WITHOUT
 UNITS. FOR MORE DETAILS SEE THE MANUAL.

 *******************************************************************************
 ATOMIC POSITIONS OPTIMIZATION CONTROL

 INITIAL TRUST RADIUS         0.25000 MAXIMUM TRUST RADIUS               0.20000
 MAXIMUM GRADIENT COMPONENT   0.00045 MAXIMUM DISPLACEMENT COMPONENT     0.00180
 R.M.S. OF GRADIENT COMPONENT 0.00030 R.M.S. OF DISPLACEMENT COMPONENTS  0.00120
 THRESHOLD ON ENERGY CHANGE 0.100E-06 EXTRAPOLATING POLYNOMIAL ORDER           2
 MAXIMUM ALLOWED NUMBER OF STEPS  500 SORTING OF ENERGY POINTS:               NO
 ANALYTICAL  GRADIENT                 HESSIAN UPDATING                      BFGS
 STEP SIZE NUMERICAL GRADIENT 0.00100
 INITIAL HESSIAN MATRIX: SCHLEGEL MODEL 2
 *******************************************************************************


 GCALCO - MAX INDICES DIRECT LATTICE VECTOR    16    16    12
 NO.OF VECTORS CREATED 6999 STARS  379 RMAX   166.99060 BOHR

 GEOMETRY FOR WAVE FUNCTION - DIMENSIONALITY OF THE SYSTEM    3
 (NON PERIODIC DIRECTION: LATTICE PARAMETER FORMALLY SET TO 500)
 *******************************************************************************
 LATTICE PARAMETERS (ANGSTROMS AND DEGREES) - BOHR = 0.5291772083 ANGSTROM
 PRIMITIVE CELL - CENTRING CODE 1/0 VOLUME=   412.228566 - DENSITY  0.725 g/cm^3
         A              B              C           ALPHA      BETA       GAMMA 
     7.40317242     7.40317242     8.68503800    90.000000  90.000000 120.000000
 *******************************************************************************
 ATOMS IN THE ASYMMETRIC UNIT   15 - ATOMS IN THE UNIT CELL:   15
     ATOM                 X/A                 Y/B                 Z/C    
 *******************************************************************************
      1 T   6 C     1.111111111111E-01  2.222222222222E-01  3.000000000000E-01
      2 T   6 C     4.444444444445E-01  2.222222222222E-01  3.000000000000E-01
      3 T   6 C     4.444444444444E-01 -4.444444444444E-01  3.000000000000E-01
      4 T   6 C     4.444444444446E-01 -1.111111111110E-01  3.000000000000E-01
      5 T   6 C    -2.222222222222E-01  2.222222222222E-01  3.000000000000E-01
      6 T   6 C    -2.222222222221E-01 -4.444444444443E-01  3.000000000000E-01
      7 T   6 C    -2.222222222221E-01 -1.111111111110E-01  3.000000000000E-01
      8 T   6 C     2.222222222222E-01  1.111111111111E-01  3.000000000000E-01
      9 T   6 C     2.222222222222E-01  4.444444444445E-01  3.000000000000E-01
     10 T   6 C     2.222222222222E-01 -2.222222222222E-01  3.000000000000E-01
     11 T   6 C    -4.444444444445E-01  1.111111111111E-01  3.000000000000E-01
     12 T   6 C    -4.444444444444E-01  4.444444444444E-01  3.000000000000E-01
     13 T   6 C    -4.444444444443E-01 -2.222222222221E-01  3.000000000000E-01
     14 T   6 C    -1.111111111110E-01  4.444444444446E-01  3.000000000000E-01
     15 T   6 C    -1.111111111110E-01 -2.222222222221E-01  3.000000000000E-01

 T = ATOM BELONGING TO THE ASYMMETRIC UNIT

 ****    1 SYMMOPS - TRANSLATORS IN FRACTIONAL UNITS
 **** MATRICES AND TRANSLATORS IN THE CRYSTALLOGRAPHIC REFERENCE FRAME
   V INV                    ROTATION MATRICES                   TRANSLATORS
   1   1  1.00  0.00  0.00  0.00  1.00  0.00  0.00  0.00  1.00  0.00  0.00  0.00

 DIRECT LATTICE VECTORS CARTESIAN COMPONENTS (ANGSTROM)
          X                    Y                    Z
   0.370158621205E+01  -0.641133538787E+01   0.000000000000E+00
   0.370158621205E+01   0.641133538787E+01   0.000000000000E+00
   0.000000000000E+00   0.000000000000E+00   0.868503800000E+01


 CARTESIAN COORDINATES - PRIMITIVE CELL
 *******************************************************************************
 *      ATOM          X(ANGSTROM)         Y(ANGSTROM)         Z(ANGSTROM)
 *******************************************************************************
    1     6 C     1.233862070683E+00  7.123705986520E-01  2.605511400000E+00
    2     6 C     2.467724141366E+00 -1.424741197304E+00  2.605511400000E+00
    3     6 C     3.701586212049E+00  7.123705986520E-01  2.605511400000E+00
    4     6 C     4.935448282733E+00  2.849482394607E+00  2.605511400000E+00
    5     6 C     3.701586212049E+00 -3.561852993259E+00  2.605511400000E+00
    6     6 C     4.935448282733E+00 -1.424741197304E+00  2.605511400000E+00
    7     6 C     6.169310353416E+00  7.123705986520E-01  2.605511400000E+00
    8     6 C     1.233862070683E+00 -7.123705986520E-01  2.605511400000E+00
    9     6 C     2.467724141366E+00  1.424741197304E+00  2.605511400000E+00
   10     6 C     3.701586212049E+00  3.561852993259E+00  2.605511400000E+00
   11     6 C     2.467724141366E+00 -2.849482394607E+00  2.605511400000E+00
   12     6 C     3.701586212049E+00 -7.123705986520E-01  2.605511400000E+00
   13     6 C     4.935448282733E+00  1.424741197304E+00  2.605511400000E+00
   14     6 C     4.935448282733E+00 -2.849482394607E+00  2.605511400000E+00
   15     6 C     6.169310353416E+00 -7.123705986520E-01  2.605511400000E+00

 *******************************************************************************
 LOCAL ATOMIC FUNCTIONS BASIS SET
 *******************************************************************************
   ATOM   X(AU)   Y(AU)   Z(AU)  N. TYPE  EXPONENT  S COEF   P COEF   D/F/G COEF
 *******************************************************************************
   1 C    2.332   1.346   4.924
                                  1 S  
                                         1.358E+04 2.225E-04 0.000E+00 0.000E+00
                                         2.035E+03 1.723E-03 0.000E+00 0.000E+00
                                         4.632E+02 8.926E-03 0.000E+00 0.000E+00
                                         1.312E+02 3.573E-02 0.000E+00 0.000E+00
                                         4.285E+01 1.108E-01 0.000E+00 0.000E+00
                                         1.558E+01 2.430E-01 0.000E+00 0.000E+00
                                  2 S  
                                         6.207E+00 4.144E-01 0.000E+00 0.000E+00
                                         2.576E+00 2.374E-01 0.000E+00 0.000E+00
                                  3 S  
                                         4.941E-01 1.000E+00 0.000E+00 0.000E+00
                                  4 S  
                                         1.644E-01 1.000E+00 0.000E+00 0.000E+00
                           5-     7 P  
                                         3.470E+01 0.000E+00 5.333E-03 0.000E+00
                                         7.958E+00 0.000E+00 3.586E-02 0.000E+00
                                         2.378E+00 0.000E+00 1.422E-01 0.000E+00
                                         8.143E-01 0.000E+00 3.427E-01 0.000E+00
                           8-    10 P  
                                         5.662E-01 0.000E+00 1.000E+00 0.000E+00
                          11-    13 P  
                                         1.974E-01 0.000E+00 1.000E+00 0.000E+00
                          14-    18 D  
                                         5.792E-01 0.000E+00 0.000E+00 1.000E+00
   2 C    4.663  -2.692   4.924
   3 C    6.995   1.346   4.924
   4 C    9.327   5.385   4.924
   5 C    6.995  -6.731   4.924
   6 C    9.327  -2.692   4.924
   7 C   11.658   1.346   4.924
   8 C    2.332  -1.346   4.924
   9 C    4.663   2.692   4.924
  10 C    6.995   6.731   4.924
  11 C    4.663  -5.385   4.924
  12 C    6.995  -1.346   4.924
  13 C    9.327   2.692   4.924
  14 C    9.327  -5.385   4.924
  15 C   11.658  -1.346   4.924
 INFORMATION **** SET_MPP **** PCRYSTAL CALCULATION
 INFORMATION **** READM2 **** NEW DEFAULT: FOCK/KS MATRIX MIXING SET TO 30 %
 INFORMATION **** READM2 **** NEW DEFAULT: FULL DIRECT SCF MODE
 INFORMATION **** READM2 **** NEW DEFAULT: COULOMB BIPOLAR BUFFER SET TO 32 Mb
 INFORMATION **** READM2 **** NEW DEFAULT: EXCHANGE BIPOLAR BUFFER SET TO 32 Mb

 *******************************************************************************
 NEW DEFAULT: DFT INTEGRATION GRID INCREASED TO XLGRID
 NEW DEFAULT: DIIS ACCELERATOR ACTIVE
 USE KEYWORD NODIIS TO TURN IT OFF
 *******************************************************************************

 INFORMATION **** TOLINTEG **** COULOMB AND EXCHANGE SERIES TOLERANCES MODIFIED
 INFORMATION **** READM2 **** FULL DIRECT SCF (MONO AND BIEL INT) SELECTED
 INFORMATION **** MAXCYCLE **** MAX NUMBER OF SCF CYCLES SET TO         200
 INFORMATION **** TOLDEE **** SCF TOL ON TOTAL ENERGY SET TO           9
 *******************************************************************************
 N. OF ATOMS PER CELL        15  COULOMB OVERLAP TOL         (T1) 10**   -8
 NUMBER OF SHELLS           120  COULOMB PENETRATION TOL     (T2) 10**   -8
 NUMBER OF AO               270  EXCHANGE OVERLAP TOL        (T3) 10**   20
 N. OF ELECTRONS PER CELL    90  EXCHANGE PSEUDO OVP (F(G))  (T4) 10**   20
 CORE ELECTRONS PER CELL     30  EXCHANGE PSEUDO OVP (P(G))  (T5) 10**   20
 N. OF SYMMETRY OPERATORS     1  POLE ORDER IN MONO ZONE                  4
 *******************************************************************************
 TYPE OF CALCULATION :  RESTRICTED CLOSED SHELL
 KOHN-SHAM HAMILTONIAN

 (EXCHANGE)[CORRELATION] FUNCTIONAL:(PERDEW-BURKE-ERNZERHOF)[PERDEW-BURKE-ERNZERHOF]


 CAPPA:IS1  8;IS2  8;IS3  8; K PTS MONK NET 260; SYMMOPS:K SPACE   2;G SPACE   1

 *******************************************************************************
 MAX NUMBER OF SCF CYCLES     200  CONVERGENCE ON DELTAP        10**-19
 WEIGHT OF F(I) IN F(I+1)      30% CONVERGENCE ON ENERGY        10**- 9
 SHRINK. FACT.(MONKH.)    8  8  8  NUMBER OF K POINTS IN THE IBZ    260
 SHRINKING FACTOR(GILAT NET)   16  NUMBER OF K POINTS(GILAT NET)   2052
 *******************************************************************************
 *** K POINTS COORDINATES (OBLIQUE COORDINATES IN UNITS OF IS =  8)
   1-R(  0  0  0)   2-C(  1  0  0)   3-C(  2  0  0)   4-C(  3  0  0)
   5-R(  4  0  0)   6-C(  0  1  0)   7-C(  1  1  0)   8-C(  2  1  0)
   9-C(  3  1  0)  10-C(  4  1  0)  11-C(  5  1  0)  12-C(  6  1  0)
  13-C(  7  1  0)  14-C(  0  2  0)  15-C(  1  2  0)  16-C(  2  2  0)
  17-C(  3  2  0)  18-C(  4  2  0)  19-C(  5  2  0)  20-C(  6  2  0)
  21-C(  7  2  0)  22-C(  0  3  0)  23-C(  1  3  0)  24-C(  2  3  0)
  25-C(  3  3  0)  26-C(  4  3  0)  27-C(  5  3  0)  28-C(  6  3  0)
  29-C(  7  3  0)  30-R(  0  4  0)  31-C(  1  4  0)  32-C(  2  4  0)
  33-C(  3  4  0)  34-R(  4  4  0)  35-C(  0  0  1)  36-C(  1  0  1)
  37-C(  2  0  1)  38-C(  3  0  1)  39-C(  4  0  1)  40-C(  5  0  1)
  41-C(  6  0  1)  42-C(  7  0  1)  43-C(  0  1  1)  44-C(  1  1  1)
  45-C(  2  1  1)  46-C(  3  1  1)  47-C(  4  1  1)  48-C(  5  1  1)
  49-C(  6  1  1)  50-C(  7  1  1)  51-C(  0  2  1)  52-C(  1  2  1)
  53-C(  2  2  1)  54-C(  3  2  1)  55-C(  4  2  1)  56-C(  5  2  1)
  57-C(  6  2  1)  58-C(  7  2  1)  59-C(  0  3  1)  60-C(  1  3  1)
  61-C(  2  3  1)  62-C(  3  3  1)  63-C(  4  3  1)  64-C(  5  3  1)
  65-C(  6  3  1)  66-C(  7  3  1)  67-C(  0  4  1)  68-C(  1  4  1)
  69-C(  2  4  1)  70-C(  3  4  1)  71-C(  4  4  1)  72-C(  5  4  1)
  73-C(  6  4  1)  74-C(  7  4  1)  75-C(  0  5  1)  76-C(  1  5  1)
  77-C(  2  5  1)  78-C(  3  5  1)  79-C(  4  5  1)  80-C(  5  5  1)
  81-C(  6  5  1)  82-C(  7  5  1)  83-C(  0  6  1)  84-C(  1  6  1)
  85-C(  2  6  1)  86-C(  3  6  1)  87-C(  4  6  1)  88-C(  5  6  1)
  89-C(  6  6  1)  90-C(  7  6  1)  91-C(  0  7  1)  92-C(  1  7  1)
  93-C(  2  7  1)  94-C(  3  7  1)  95-C(  4  7  1)  96-C(  5  7  1)
  97-C(  6  7  1)  98-C(  7  7  1)  99-C(  0  0  2) 100-C(  1  0  2)
 101-C(  2  0  2) 102-C(  3  0  2) 103-C(  4  0  2) 104-C(  5  0  2)
 105-C(  6  0  2) 106-C(  7  0  2) 107-C(  0  1  2) 108-C(  1  1  2)
 109-C(  2  1  2) 110-C(  3  1  2) 111-C(  4  1  2) 112-C(  5  1  2)
 113-C(  6  1  2) 114-C(  7  1  2) 115-C(  0  2  2) 116-C(  1  2  2)
 117-C(  2  2  2) 118-C(  3  2  2) 119-C(  4  2  2) 120-C(  5  2  2)
 121-C(  6  2  2) 122-C(  7  2  2) 123-C(  0  3  2) 124-C(  1  3  2)
 125-C(  2  3  2) 126-C(  3  3  2) 127-C(  4  3  2) 128-C(  5  3  2)
 129-C(  6  3  2) 130-C(  7  3  2) 131-C(  0  4  2) 132-C(  1  4  2)
 133-C(  2  4  2) 134-C(  3  4  2) 135-C(  4  4  2) 136-C(  5  4  2)
 137-C(  6  4  2) 138-C(  7  4  2) 139-C(  0  5  2) 140-C(  1  5  2)
 141-C(  2  5  2) 142-C(  3  5  2) 143-C(  4  5  2) 144-C(  5  5  2)
 145-C(  6  5  2) 146-C(  7  5  2) 147-C(  0  6  2) 148-C(  1  6  2)
 149-C(  2  6  2) 150-C(  3  6  2) 151-C(  4  6  2) 152-C(  5  6  2)
 153-C(  6  6  2) 154-C(  7  6  2) 155-C(  0  7  2) 156-C(  1  7  2)
 157-C(  2  7  2) 158-C(  3  7  2) 159-C(  4  7  2) 160-C(  5  7  2)
 161-C(  6  7  2) 162-C(  7  7  2) 163-C(  0  0  3) 164-C(  1  0  3)
 165-C(  2  0  3) 166-C(  3  0  3) 167-C(  4  0  3) 168-C(  5  0  3)
 169-C(  6  0  3) 170-C(  7  0  3) 171-C(  0  1  3) 172-C(  1  1  3)
 173-C(  2  1  3) 174-C(  3  1  3) 175-C(  4  1  3) 176-C(  5  1  3)
 177-C(  6  1  3) 178-C(  7  1  3) 179-C(  0  2  3) 180-C(  1  2  3)
 181-C(  2  2  3) 182-C(  3  2  3) 183-C(  4  2  3) 184-C(  5  2  3)
 185-C(  6  2  3) 186-C(  7  2  3) 187-C(  0  3  3) 188-C(  1  3  3)
 189-C(  2  3  3) 190-C(  3  3  3) 191-C(  4  3  3) 192-C(  5  3  3)
 193-C(  6  3  3) 194-C(  7  3  3) 195-C(  0  4  3) 196-C(  1  4  3)
 197-C(  2  4  3) 198-C(  3  4  3) 199-C(  4  4  3) 200-C(  5  4  3)
 201-C(  6  4  3) 202-C(  7  4  3) 203-C(  0  5  3) 204-C(  1  5  3)
 205-C(  2  5  3) 206-C(  3  5  3) 207-C(  4  5  3) 208-C(  5  5  3)
 209-C(  6  5  3) 210-C(  7  5  3) 211-C(  0  6  3) 212-C(  1  6  3)
 213-C(  2  6  3) 214-C(  3  6  3) 215-C(  4  6  3) 216-C(  5  6  3)
 217-C(  6  6  3) 218-C(  7  6  3) 219-C(  0  7  3) 220-C(  1  7  3)
 221-C(  2  7  3) 222-C(  3  7  3) 223-C(  4  7  3) 224-C(  5  7  3)
 225-C(  6  7  3) 226-C(  7  7  3) 227-R(  0  0  4) 228-C(  1  0  4)
 229-C(  2  0  4) 230-C(  3  0  4) 231-R(  4  0  4) 232-C(  0  1  4)
 233-C(  1  1  4) 234-C(  2  1  4) 235-C(  3  1  4) 236-C(  4  1  4)
 237-C(  5  1  4) 238-C(  6  1  4) 239-C(  7  1  4) 240-C(  0  2  4)
 241-C(  1  2  4) 242-C(  2  2  4) 243-C(  3  2  4) 244-C(  4  2  4)
 245-C(  5  2  4) 246-C(  6  2  4) 247-C(  7  2  4) 248-C(  0  3  4)
 249-C(  1  3  4) 250-C(  2  3  4) 251-C(  3  3  4) 252-C(  4  3  4)
 253-C(  5  3  4) 254-C(  6  3  4) 255-C(  7  3  4) 256-R(  0  4  4)
 257-C(  1  4  4) 258-C(  2  4  4) 259-C(  3  4  4) 260-R(  4  4  4)

 DIRECT LATTICE VECTORS COMPON. (A.U.)     RECIP. LATTICE VECTORS COMPON. (A.U.) 
        X            Y            Z              X            Y            Z
    6.9949842  -12.1156680    0.0000000      0.4491208   -0.2593000    0.0000000
    6.9949842   12.1156680    0.0000000      0.4491208    0.2593000   -0.0000000
    0.0000000    0.0000000   16.4123433     -0.0000000    0.0000000    0.3828329

 DISK SPACE FOR EIGENVECTORS (FTN 10)    37324800 REALS

 SYMMETRY ADAPTION OF THE BLOCH FUNCTIONS DISABLED
 TTTTTTTTTTTTTTTTTTTTTTTTTTTTTT gordsh1     TELAPSE        2.82 TCPU        0.98

 MATRIX SIZE: P(G)  110802, F(G)   55581, P(G) IRR   55866, F(G) IRR   55866
 MAX G-VECTOR INDEX FOR 1- AND 2-ELECTRON INTEGRALS  27

 TTTTTTTTTTTTTTTTTTTTTTTTTTTTTT INPUT       TELAPSE        2.83 TCPU        0.99

 NEIGHBORS OF THE NON-EQUIVALENT ATOMS

 N = NUMBER OF NEIGHBORS AT DISTANCE R
    ATOM  N     R/ANG      R/AU   NEIGHBORS (ATOM LABELS AND CELL INDICES)
   1 C    2     1.4247     2.6924    8 C    0 0 0    9 C    0 0 0
   1 C    4     2.4677     4.6633    2 C    0 0 0    3 C    0 0 0    5 C   -1 0 0
                                     7 C   -1-1 0
   1 C    3     2.8495     5.3847   12 C    0 0 0   14 C   -1 0 0   15 C   -1-1 0
   1 C    6     3.7695     7.1233   10 C    0 0 0   10 C    0-1 0   11 C    0 0 0
                                    11 C   -1 0 0   13 C    0 0 0   13 C   -1-1 0
   1 C    6     4.2742     8.0771    4 C    0 0 0    4 C   -1-1 0    4 C    0-1 0
                                     6 C    0 0 0    6 C   -1-1 0    6 C   -1 0 0
   1 C    4     4.9354     9.3266    2 C   -1 0 0    3 C   -1-1 0    5 C    0 0 0
                                     7 C    0 0 0

   2 C    3     1.4247     2.6924    8 C    0 0 0   11 C    0 0 0   12 C    0 0 0
   2 C    5     2.4677     4.6633    1 C    0 0 0    3 C    0 0 0    4 C    0-1 0
                                     5 C    0 0 0    6 C    0 0 0
   2 C    3     2.8495     5.3847    9 C    0 0 0   10 C    0-1 0   14 C    0 0 0
   2 C    4     3.7695     7.1233   13 C    0 0 0   13 C    0-1 0   15 C    0 0 0
                                    15 C   -1-1 0
   2 C    3     4.2742     8.0771    7 C    0 0 0    7 C   -1-1 0    7 C    0-1 0
   2 C    5     4.9354     9.3266    1 C    1 0 0    3 C    0-1 0    4 C    0 0 0
                                     5 C   -1 0 0    6 C   -1-1 0

   3 C    3     1.4247     2.6924    9 C    0 0 0   12 C    0 0 0   13 C    0 0 0
   3 C    5     2.4677     4.6633    1 C    0 0 0    2 C    0 0 0    4 C    0 0 0
                                     6 C    0 0 0    7 C    0 0 0
   3 C    3     2.8495     5.3847    8 C    0 0 0   10 C    0 0 0   15 C    0 0 0
   3 C    4     3.7695     7.1233   11 C    0 0 0   11 C    0 1 0   14 C    0 0 0
                                    14 C   -1 0 0
   3 C    3     4.2742     8.0771    5 C    0 0 0    5 C   -1 0 0    5 C    0 1 0
   3 C    5     4.9354     9.3266    1 C    1 1 0    2 C    0 1 0    4 C    0-1 0
                                     6 C   -1 0 0    7 C   -1-1 0

   4 C    3     1.4247     2.6924   10 C    0 0 0   11 C    0 1 0   13 C    0 0 0
   4 C    4     2.4677     4.6633    2 C    0 1 0    3 C    0 0 0    5 C    0 1 0
                                     7 C    0 0 0
   4 C    2     2.8495     5.3847    8 C    0 1 0    9 C    0 0 0
   4 C    6     3.7695     7.1233   12 C    0 0 0   12 C    0 1 0   14 C   -1 0 0
                                    14 C    0 1 0   15 C    0 0 0   15 C   -1 0 0
   4 C    6     4.2742     8.0771    1 C    0 0 0    1 C    1 1 0    1 C    0 1 0
                                     6 C    0 0 0    6 C   -1 0 0    6 C    0 1 0
   4 C    4     4.9354     9.3266    2 C    0 0 0    3 C    0 1 0    5 C   -1 0 0
                                     7 C   -1 0 0

   5 C    2     1.4247     2.6924   11 C    0 0 0   14 C    0 0 0
   5 C    5     2.4677     4.6633    1 C    1 0 0    2 C    0 0 0    4 C    0-1 0
                                     6 C    0 0 0    7 C    0-1 0
   5 C    3     2.8495     5.3847    9 C    1 0 0   12 C    0 0 0   13 C    0-1 0
   5 C    6     3.7695     7.1233    8 C    0 0 0    8 C    1 0 0   10 C    1 0 0
                                    10 C    0-1 0   15 C    0 0 0   15 C    0-1 0
   5 C    3     4.2742     8.0771    3 C    0 0 0    3 C    1 0 0    3 C    0-1 0
   5 C    5     4.9354     9.3266    1 C    0 0 0    2 C    1 0 0    4 C    1 0 0
                                     6 C    0-1 0    7 C    0 0 0

   6 C    3     1.4247     2.6924   12 C    0 0 0   14 C    0 0 0   15 C    0 0 0
   6 C    4     2.4677     4.6633    2 C    0 0 0    3 C    0 0 0    5 C    0 0 0
                                     7 C    0 0 0
   6 C    3     2.8495     5.3847   10 C    1 0 0   11 C    0 0 0   13 C    0 0 0
   6 C    4     3.7695     7.1233    8 C    0 0 0    8 C    1 1 0    9 C    0 0 0
                                     9 C    1 0 0
   6 C    6     4.2742     8.0771    1 C    0 0 0    1 C    1 1 0    1 C    1 0 0
                                     4 C    0 0 0    4 C    1 0 0    4 C    0-1 0
   6 C    4     4.9354     9.3266    2 C    1 1 0    3 C    1 0 0    5 C    0 1 0
                                     7 C    0-1 0

   7 C    2     1.4247     2.6924   13 C    0 0 0   15 C    0 0 0
   7 C    5     2.4677     4.6633    1 C    1 1 0    3 C    0 0 0    4 C    0 0 0
                                     5 C    0 1 0    6 C    0 0 0
   7 C    3     2.8495     5.3847    8 C    1 1 0   11 C    0 1 0   12 C    0 0 0
   7 C    6     3.7695     7.1233    9 C    0 0 0    9 C    1 1 0   10 C    0 0 0
                                    10 C    1 0 0   14 C    0 0 0   14 C    0 1 0
   7 C    3     4.2742     8.0771    2 C    0 0 0    2 C    1 1 0    2 C    0 1 0
   7 C    5     4.9354     9.3266    1 C    0 0 0    3 C    1 1 0    4 C    1 0 0
                                     5 C    0 0 0    6 C    0 1 0

   8 C    2     1.4247     2.6924    1 C    0 0 0    2 C    0 0 0
   8 C    5     2.4677     4.6633    9 C    0 0 0   10 C    0-1 0   11 C    0 0 0
                                    12 C    0 0 0   15 C   -1-1 0
   8 C    3     2.8495     5.3847    3 C    0 0 0    4 C    0-1 0    7 C   -1-1 0
   8 C    4     3.7695     7.1233    5 C    0 0 0    5 C   -1 0 0    6 C    0 0 0
                                     6 C   -1-1 0
   8 C    6     4.2742     8.0771   13 C    0 0 0   13 C   -1-1 0   13 C    0-1 0
                                    14 C    0 0 0   14 C   -1-1 0   14 C   -1 0 0
   8 C    5     4.9354     9.3266    9 C    0-1 0   10 C    0 0 0   11 C   -1 0 0
                                    12 C   -1-1 0   15 C    0 0 0

   9 C    2     1.4247     2.6924    1 C    0 0 0    3 C    0 0 0
   9 C    5     2.4677     4.6633    8 C    0 0 0   10 C    0 0 0   12 C    0 0 0
                                    13 C    0 0 0   14 C   -1 0 0
   9 C    3     2.8495     5.3847    2 C    0 0 0    4 C    0 0 0    5 C   -1 0 0
   9 C    4     3.7695     7.1233    6 C    0 0 0    6 C   -1 0 0    7 C    0 0 0
                                     7 C   -1-1 0
   9 C    6     4.2742     8.0771   11 C    0 0 0   11 C   -1 0 0   11 C    0 1 0
                                    15 C    0 0 0   15 C   -1-1 0   15 C   -1 0 0
   9 C    5     4.9354     9.3266    8 C    0 1 0   10 C    0-1 0   12 C   -1 0 0
                                    13 C   -1-1 0   14 C    0 0 0

  10 C    1     1.4247     2.6924    4 C    0 0 0
  10 C    6     2.4677     4.6633    8 C    0 1 0    9 C    0 0 0   11 C    0 1 0
                                    13 C    0 0 0   14 C   -1 0 0   15 C   -1 0 0
  10 C    3     2.8495     5.3847    2 C    0 1 0    3 C    0 0 0    6 C   -1 0 0
  10 C    6     3.7695     7.1233    1 C    0 0 0    1 C    0 1 0    5 C   -1 0 0
                                     5 C    0 1 0    7 C    0 0 0    7 C   -1 0 0
  10 C    3     4.2742     8.0771   12 C    0 0 0   12 C   -1 0 0   12 C    0 1 0
  10 C    6     4.9354     9.3266    8 C    0 0 0    9 C    0 1 0   11 C   -1 0 0
                                    13 C   -1 0 0   14 C    0 1 0   15 C    0 0 0

  11 C    3     1.4247     2.6924    2 C    0 0 0    4 C    0-1 0    5 C    0 0 0
  11 C    5     2.4677     4.6633    8 C    0 0 0   10 C    0-1 0   12 C    0 0 0
                                    13 C    0-1 0   14 C    0 0 0
  11 C    2     2.8495     5.3847    6 C    0 0 0    7 C    0-1 0
  11 C    4     3.7695     7.1233    1 C    0 0 0    1 C    1 0 0    3 C    0 0 0
                                     3 C    0-1 0
  11 C    6     4.2742     8.0771    9 C    0 0 0    9 C    1 0 0    9 C    0-1 0
                                    15 C    0 0 0   15 C   -1-1 0   15 C    0-1 0
  11 C    5     4.9354     9.3266    8 C    1 0 0   10 C    1 0 0   12 C    0-1 0
                                    13 C    0 0 0   14 C   -1-1 0

  12 C    3     1.4247     2.6924    2 C    0 0 0    3 C    0 0 0    6 C    0 0 0
  12 C    6     2.4677     4.6633    8 C    0 0 0    9 C    0 0 0   11 C    0 0 0
                                    13 C    0 0 0   14 C    0 0 0   15 C    0 0 0
  12 C    3     2.8495     5.3847    1 C    0 0 0    5 C    0 0 0    7 C    0 0 0
  12 C    2     3.7695     7.1233    4 C    0 0 0    4 C    0-1 0
  12 C    3     4.2742     8.0771   10 C    0 0 0   10 C    1 0 0   10 C    0-1 0
  12 C    6     4.9354     9.3266    8 C    1 1 0    9 C    1 0 0   11 C    0 1 0
                                    13 C    0-1 0   14 C   -1 0 0   15 C   -1-1 0

  13 C    3     1.4247     2.6924    3 C    0 0 0    4 C    0 0 0    7 C    0 0 0
  13 C    5     2.4677     4.6633    9 C    0 0 0   10 C    0 0 0   11 C    0 1 0
                                    12 C    0 0 0   15 C    0 0 0
  13 C    2     2.8495     5.3847    5 C    0 1 0    6 C    0 0 0
  13 C    4     3.7695     7.1233    1 C    0 0 0    1 C    1 1 0    2 C    0 0 0
                                     2 C    0 1 0
  13 C    6     4.2742     8.0771    8 C    0 0 0    8 C    1 1 0    8 C    0 1 0
                                    14 C    0 0 0   14 C   -1 0 0   14 C    0 1 0
  13 C    5     4.9354     9.3266    9 C    1 1 0   10 C    1 0 0   11 C    0 0 0
                                    12 C    0 1 0   15 C   -1 0 0

  14 C    2     1.4247     2.6924    5 C    0 0 0    6 C    0 0 0
  14 C    5     2.4677     4.6633    9 C    1 0 0   10 C    1 0 0   11 C    0 0 0
                                    12 C    0 0 0   15 C    0 0 0
  14 C    2     2.8495     5.3847    1 C    1 0 0    2 C    0 0 0
  14 C    6     3.7695     7.1233    3 C    0 0 0    3 C    1 0 0    4 C    1 0 0
                                     4 C    0-1 0    7 C    0 0 0    7 C    0-1 0
  14 C    6     4.2742     8.0771    8 C    0 0 0    8 C    1 1 0    8 C    1 0 0
                                    13 C    0 0 0   13 C    1 0 0   13 C    0-1 0
  14 C    5     4.9354     9.3266    9 C    0 0 0   10 C    0-1 0   11 C    1 1 0
                                    12 C    1 0 0   15 C    0-1 0

  15 C    2     1.4247     2.6924    6 C    0 0 0    7 C    0 0 0
  15 C    5     2.4677     4.6633    8 C    1 1 0   10 C    1 0 0   12 C    0 0 0
                                    13 C    0 0 0   14 C    0 0 0
  15 C    2     2.8495     5.3847    1 C    1 1 0    3 C    0 0 0
  15 C    6     3.7695     7.1233    2 C    0 0 0    2 C    1 1 0    4 C    0 0 0
                                     4 C    1 0 0    5 C    0 0 0    5 C    0 1 0
  15 C    6     4.2742     8.0771    9 C    0 0 0    9 C    1 1 0    9 C    1 0 0
                                    11 C    0 0 0   11 C    1 1 0   11 C    0 1 0
  15 C    5     4.9354     9.3266    8 C    0 0 0   10 C    0 0 0   12 C    1 1 0
                                    13 C    1 0 0   14 C    0 1 0


 SYMMETRY ALLOWED INTERNAL DEGREE(S) OF FREEDOM:  42
 TTTTTTTTTTTTTTTTTTTTTTTTTTTTTT SYMM        TELAPSE        2.84 TCPU        1.00
 TTTTTTTTTTTTTTTTTTTTTTTTTTTTTT INT_SCREEN  TELAPSE        2.84 TCPU        1.00

 *******************************************************************************
 *                             OPTIMIZATION STARTS                             *
 *******************************************************************************
 RECLASIFICATION OF INDICES FOR INTEGRAL CALC ACCORDING TO DIFFERENT CRITERIA:
           FIXDELTE                  FIXDELTX              FIXDELTN
          0.10000000               0.80000000                 42
 *******************************************************************************

 *******************************************************************************
 COORDINATE OPTIMIZATION - POINT    1
 INFORMATION **** EXCBUF **** EXCH. BIPO BUFFER: WORDS USED =           0

 DFT PARAMETERS

     ATOM       ELECTRONS   NET CHARGE   R(ANGSTROM)
   1   6  C       6.0000      0.0000     0.77000000

 SIZE OF GRID=     504293
 TTTTTTTTTTTTTTTTTTTTTTTTTTTTTT MAKE_GRID2  TELAPSE        3.19 TCPU        1.35
 BECKE WEIGHT FUNCTION
 RADSAFE =     2.00
 TOLERANCES - DENSITY:10**- 6; POTENTIAL:10**- 9; GRID WGT:10**-14

 RADIAL INTEGRATION  - INTERVALS (POINTS,UPPER LIMIT):            1( 75,  4.0*R)

 ANGULAR INTEGRATION - INTERVALS (ACCURACY LEVEL [N. POINTS] UPPER LIMIT):
  1(  4[  86]   0.2)  2(  8[ 194]   0.5)  3( 12[ 350]   0.9)  4( 16[ 974]   3.5)
  5( 12[ 350]9999.0)
 TTTTTTTTTTTTTTTTTTTTTTTTTTTTTT INT_CALC    TELAPSE        3.22 TCPU        1.38

 *******************************************************************************
 Final                                                                           
 CRYSTAL - SCF - TYPE OF CALCULATION :  RESTRICTED CLOSED SHELL
 *******************************************************************************

 CAPPA:IS1  8;IS2  8;IS3  8; K PTS MONK NET 260; SYMMOPS:K SPACE   2;G SPACE   1

 TTTTTTTTTTTTTTTTTTTTTTTTTTTTTT SDIK        TELAPSE        3.27 TCPU        1.43

 AAAAAAAAAAAAAAAAAAAAAAAAAAAAAAAAAAAAAAAAAAAAAAAAAAAAAAAAAAAAAAAAAAAAAAAAAAAAAAA
         ATOMIC WAVEFUNCTION(S)


 NUCLEAR CHARGE  6.0  SYMMETRY SPECIES            S    P
 N. ELECTRONS    6.0  NUMBER OF PRIMITIVE GTOS   10    6
                      NUMBER OF CONTRACTED GTOS   4    3
                      NUMBER OF CLOSED SHELLS     2    0
                      OPEN SHELL OCCUPATION       0    2

  ZNUC SCFIT  TOTAL HF ENERGY   KINETIC ENERGY   VIRIAL THEOREM ACCURACY
   6.0  10   -3.768111494E+01  3.771190961E+01 -1.999183423E+00  3.4E-06

 AAAAAAAAAAAAAAAAAAAAAAAAAAAAAAAAAAAAAAAAAAAAAAAAAAAAAAAAAAAAAAAAAAAAAAAAAAAAAAA

 CHARGE NORMALIZATION FACTOR   1.00000000
 TOTAL ATOMIC CHARGES:
   6.0000000   6.0000000   6.0000000   6.0000000   6.0000000   6.0000000
   6.0000000   6.0000000   6.0000000   6.0000000   6.0000000   6.0000000
   6.0000000   6.0000000   6.0000000
 TTTTTTTTTTTTTTTTTTTTTTTTTTTTTT MOQGAD      TELAPSE        3.28 TCPU        1.44
 TTTTTTTTTTTTTTTTTTTTTTTTTTTTTT SHELLXN     TELAPSE        3.91 TCPU        2.06
 TTTTTTTTTTTTTTTTTTTTTTTTTTTTTT MONMO3      TELAPSE        4.02 TCPU        2.18
 NUMERICALLY INTEGRATED DENSITY     89.9998015362
 TTTTTTTTTTTTTTTTTTTTTTTTTTTTTT NUMDFT      TELAPSE        4.18 TCPU        2.33
 CYC   0 ETOT(AU) -5.736301182494E+02 DETOT -5.74E+02 tst  0.00E+00 PX  1.00E+00
 TTTTTTTTTTTTTTTTTTTTTTTTTTTTTT DIIS        TELAPSE        4.19 TCPU        2.34
 TTTTTTTTTTTTTTTTTTTTTTTTTTTTTT FDIK        TELAPSE        4.35 TCPU        2.50
 POSSIBLY CONDUCTING STATE - EFERMI(AU) -2.3093075E-01 (RES. CHARGE  1.85E-13;IT. 12)
 TTTTTTTTTTTTTTTTTTTTTTTTTTTTTT PDIG        TELAPSE        4.48 TCPU        2.63
 CHARGE NORMALIZATION FACTOR   1.00000000
 TOTAL ATOMIC CHARGES:
   6.0717970   6.0520843   6.0521120   6.1676812   6.0956523   6.0541649
   6.0957924   5.9319425   5.9318861   5.6677002   5.9591189   6.0246890
   5.9591237   5.9680352   5.9682203
 TTTTTTTTTTTTTTTTTTTTTTTTTTTTTT MOQGAD      TELAPSE        4.48 TCPU        2.63
 TTTTTTTTTTTTTTTTTTTTTTTTTTTTTT SHELLXN     TELAPSE        5.19 TCPU        3.34
 TTTTTTTTTTTTTTTTTTTTTTTTTTTTTT MONMO3      TELAPSE        5.33 TCPU        3.48
 NUMERICALLY INTEGRATED DENSITY     89.9998453316
 TTTTTTTTTTTTTTTTTTTTTTTTTTTTTT NUMDFT      TELAPSE        5.59 TCPU        3.74
 CYC   1 ETOT(AU) -5.703212751967E+02 DETOT  3.31E+00 tst  0.00E+00 PX  1.00E+00
 TTTTTTTTTTTTTTTTTTTTTTTTTTTTTT DIIS        TELAPSE        5.60 TCPU        3.75
 DIIS TEST: 0.79065E+00 AT SCF   CYCLE   1 - MIX   30 %
 TTTTTTTTTTTTTTTTTTTTTTTTTTTTTT FDIK        TELAPSE        5.77 TCPU        3.92
 POSSIBLY CONDUCTING STATE - EFERMI(AU) -1.8793542E-01 (RES. CHARGE  0.00E+00;IT. 12)
 TTTTTTTTTTTTTTTTTTTTTTTTTTTTTT PDIG        TELAPSE        5.88 TCPU        4.02
 CHARGE NORMALIZATION FACTOR   1.00000000
 TOTAL ATOMIC CHARGES:
   5.8402340   5.8130689   5.8129242   5.6679494   5.6892838   5.7465443
   5.6891648   6.2620861   6.2614310   7.5135679   5.9572599   5.8077849
   5.9570959   5.9911746   5.9904304
 TTTTTTTTTTTTTTTTTTTTTTTTTTTTTT MOQGAD      TELAPSE        5.88 TCPU        4.02
 TTTTTTTTTTTTTTTTTTTTTTTTTTTTTT SHELLXN     TELAPSE        6.59 TCPU        4.74
 TTTTTTTTTTTTTTTTTTTTTTTTTTTTTT MONMO3      TELAPSE        6.73 TCPU        4.87
 NUMERICALLY INTEGRATED DENSITY     89.9998085100
 TTTTTTTTTTTTTTTTTTTTTTTTTTTTTT NUMDFT      TELAPSE        6.98 TCPU        5.13
 CYC   2 ETOT(AU) -5.698368854231E+02 DETOT  4.84E-01 tst  3.70E-02 PX  3.11E-01
 TTTTTTTTTTTTTTTTTTTTTTTTTTTTTT DIIS        TELAPSE        6.99 TCPU        5.14
 DIIS TEST: 0.47145E+01 AT SCF   CYCLE   2 - DIIS ACTIVE - HISTORY:     2 CYCLES
 TTTTTTTTTTTTTTTTTTTTTTTTTTTTTT FDIK        TELAPSE        7.18 TCPU        5.32
 POSSIBLY CONDUCTING STATE - EFERMI(AU) -1.5535648E-01 (RES. CHARGE  1.84E-11;IT.  8)
 TTTTTTTTTTTTTTTTTTTTTTTTTTTTTT PDIG        TELAPSE        7.28 TCPU        5.42
 CHARGE NORMALIZATION FACTOR   1.00000000
 TOTAL ATOMIC CHARGES:
   6.2644742   5.9039438   5.9040540   5.8492958   6.6013981   5.9341980
   6.6012976   5.9374835   5.9384259   5.1263837   5.9867396   5.9719732
   5.9868341   5.9968007   5.9966977
 TTTTTTTTTTTTTTTTTTTTTTTTTTTTTT MOQGAD      TELAPSE        7.28 TCPU        5.42
 TTTTTTTTTTTTTTTTTTTTTTTTTTTTTT SHELLXN     TELAPSE        7.99 TCPU        6.14
 TTTTTTTTTTTTTTTTTTTTTTTTTTTTTT MONMO3      TELAPSE        8.13 TCPU        6.27
 NUMERICALLY INTEGRATED DENSITY     89.9998107967
 TTTTTTTTTTTTTTTTTTTTTTTTTTTTTT NUMDFT      TELAPSE        8.38 TCPU        6.52
 CYC   3 ETOT(AU) -5.700310823352E+02 DETOT -1.94E-01 tst  8.44E-02 PX  3.03E-01
 TTTTTTTTTTTTTTTTTTTTTTTTTTTTTT DIIS        TELAPSE        8.40 TCPU        6.54
 DIIS TEST: 0.33298E+01 AT SCF   CYCLE   3 - DIIS ACTIVE - HISTORY:     3 CYCLES
 TTTTTTTTTTTTTTTTTTTTTTTTTTTTTT FDIK        TELAPSE        8.58 TCPU        6.72
 POSSIBLY CONDUCTING STATE - EFERMI(AU) -1.6239723E-01 (RES. CHARGE  9.96E-10;IT. 12)
 TTTTTTTTTTTTTTTTTTTTTTTTTTTTTT PDIG        TELAPSE        8.68 TCPU        6.82
 CHARGE NORMALIZATION FACTOR   1.00000000
 TOTAL ATOMIC CHARGES:
   5.9614478   5.9913713   5.9914244   6.0095815   5.9160548   6.0032595
   5.9159725   6.0326774   6.0328416   5.8745301   6.0368409   6.0684481
   6.0369234   6.0637346   6.0648921
 TTTTTTTTTTTTTTTTTTTTTTTTTTTTTT MOQGAD      TELAPSE        8.68 TCPU        6.82
 TTTTTTTTTTTTTTTTTTTTTTTTTTTTTT SHELLXN     TELAPSE        9.39 TCPU        7.53
 TTTTTTTTTTTTTTTTTTTTTTTTTTTTTT MONMO3      TELAPSE        9.53 TCPU        7.67
 NUMERICALLY INTEGRATED DENSITY     89.9998112617
 TTTTTTTTTTTTTTTTTTTTTTTTTTTTTT NUMDFT      TELAPSE        9.78 TCPU        7.92
 CYC   4 ETOT(AU) -5.704152006020E+02 DETOT -3.84E-01 tst  7.39E-03 PX  1.72E-01
 TTTTTTTTTTTTTTTTTTTTTTTTTTTTTT DIIS        TELAPSE        9.80 TCPU        7.94
 DIIS TEST: 0.14215E+00 AT SCF   CYCLE   4 - DIIS ACTIVE - HISTORY:     4 CYCLES
 TTTTTTTTTTTTTTTTTTTTTTTTTTTTTT FDIK        TELAPSE        9.98 TCPU        8.11
 POSSIBLY CONDUCTING STATE - EFERMI(AU) -1.7937191E-01 (RES. CHARGE  2.70E-13;IT. 16)
 TTTTTTTTTTTTTTTTTTTTTTTTTTTTTT PDIG        TELAPSE       10.08 TCPU        8.21
 CHARGE NORMALIZATION FACTOR   1.00000000
 TOTAL ATOMIC CHARGES:
   6.2328861   5.9779861   5.9778793   6.0065859   6.2372122   5.9368752
   6.2368997   5.9201560   5.9199771   6.1426496   5.9174078   5.9329971
   5.9171853   5.8232342   5.8200686
 TTTTTTTTTTTTTTTTTTTTTTTTTTTTTT MOQGAD      TELAPSE       10.08 TCPU        8.21
 TTTTTTTTTTTTTTTTTTTTTTTTTTTTTT SHELLXN     TELAPSE       10.79 TCPU        8.93
 TTTTTTTTTTTTTTTTTTTTTTTTTTTTTT MONMO3      TELAPSE       10.93 TCPU        9.06
 NUMERICALLY INTEGRATED DENSITY     89.9998185859
 TTTTTTTTTTTTTTTTTTTTTTTTTTTTTT NUMDFT      TELAPSE       11.18 TCPU        9.32
 CYC   5 ETOT(AU) -5.703988619678E+02 DETOT  1.63E-02 tst  1.81E-03 PX  6.29E-02
 TTTTTTTTTTTTTTTTTTTTTTTTTTTTTT DIIS        TELAPSE       11.20 TCPU        9.33
 DIIS TEST: 0.31956E+00 AT SCF   CYCLE   5 - DIIS ACTIVE - HISTORY:     5 CYCLES
 TTTTTTTTTTTTTTTTTTTTTTTTTTTTTT FDIK        TELAPSE       11.38 TCPU        9.51
 POSSIBLY CONDUCTING STATE - EFERMI(AU) -1.8171548E-01 (RES. CHARGE  2.57E-10;IT. 16)
 TTTTTTTTTTTTTTTTTTTTTTTTTTTTTT PDIG        TELAPSE       11.48 TCPU        9.61
 CHARGE NORMALIZATION FACTOR   1.00000000
 TOTAL ATOMIC CHARGES:
   5.9813953   5.9579845   5.9581317   5.9632562   6.0976528   5.9713113
   6.0986572   6.0338048   6.0336975   5.9702397   5.9400280   5.9666869
   5.9401547   6.0419264   6.0450732
 TTTTTTTTTTTTTTTTTTTTTTTTTTTTTT MOQGAD      TELAPSE       11.48 TCPU        9.61
 TTTTTTTTTTTTTTTTTTTTTTTTTTTTTT SHELLXN     TELAPSE       12.20 TCPU       10.33
 TTTTTTTTTTTTTTTTTTTTTTTTTTTTTT MONMO3      TELAPSE       12.33 TCPU       10.46
 NUMERICALLY INTEGRATED DENSITY     89.9998199249
 TTTTTTTTTTTTTTTTTTTTTTTTTTTTTT NUMDFT      TELAPSE       12.59 TCPU       10.72
 CYC   6 ETOT(AU) -5.704284575442E+02 DETOT -2.96E-02 tst  8.06E-04 PX  3.61E-02
 TTTTTTTTTTTTTTTTTTTTTTTTTTTTTT DIIS        TELAPSE       12.60 TCPU       10.73
 DIIS TEST: 0.49545E-01 AT SCF   CYCLE   6 - DIIS ACTIVE - HISTORY:     6 CYCLES
 TTTTTTTTTTTTTTTTTTTTTTTTTTTTTT FDIK        TELAPSE       12.78 TCPU       10.91
 POSSIBLY CONDUCTING STATE - EFERMI(AU) -1.7964623E-01 (RES. CHARGE  1.48E-12;IT. 12)
 TTTTTTTTTTTTTTTTTTTTTTTTTTTTTT PDIG        TELAPSE       12.88 TCPU       11.01
 CHARGE NORMALIZATION FACTOR   1.00000000
 TOTAL ATOMIC CHARGES:
   6.0431855   5.9732238   5.9732002   5.9817239   6.0416340   5.9568985
   6.0404304   6.0340088   6.0349258   6.0174159   6.0089341   5.9844213
   6.0085735   5.9523877   5.9490367
 TTTTTTTTTTTTTTTTTTTTTTTTTTTTTT MOQGAD      TELAPSE       12.88 TCPU       11.01
 TTTTTTTTTTTTTTTTTTTTTTTTTTTTTT SHELLXN     TELAPSE       13.60 TCPU       11.72
 TTTTTTTTTTTTTTTTTTTTTTTTTTTTTT MONMO3      TELAPSE       13.74 TCPU       11.86
 NUMERICALLY INTEGRATED DENSITY     89.9998178355
 TTTTTTTTTTTTTTTTTTTTTTTTTTTTTT NUMDFT      TELAPSE       14.11 TCPU       12.23
 CYC   7 ETOT(AU) -5.704334012509E+02 DETOT -4.94E-03 tst  1.88E-04 PX  1.79E-02
 TTTTTTTTTTTTTTTTTTTTTTTTTTTTTT DIIS        TELAPSE       14.14 TCPU       12.27
 DIIS TEST: 0.12804E-01 AT SCF   CYCLE   7 - DIIS ACTIVE - HISTORY:     7 CYCLES
 TTTTTTTTTTTTTTTTTTTTTTTTTTTTTT FDIK        TELAPSE       14.30 TCPU       12.42
 POSSIBLY CONDUCTING STATE - EFERMI(AU) -1.7969104E-01 (RES. CHARGE  8.83E-11;IT.  8)
 TTTTTTTTTTTTTTTTTTTTTTTTTTTTTT PDIG        TELAPSE       14.40 TCPU       12.52
 CHARGE NORMALIZATION FACTOR   1.00000000
 TOTAL ATOMIC CHARGES:
   6.0762083   5.9767822   5.9766895   5.9914874   6.0519896   5.9799768
   6.0538512   5.9503012   5.9476959   6.0675057   5.9591079   6.0005340
   5.9592206   6.0022067   6.0064431
 TTTTTTTTTTTTTTTTTTTTTTTTTTTTTT MOQGAD      TELAPSE       14.40 TCPU       12.52
 TTTTTTTTTTTTTTTTTTTTTTTTTTTTTT SHELLXN     TELAPSE       15.12 TCPU       13.24
 TTTTTTTTTTTTTTTTTTTTTTTTTTTTTT MONMO3      TELAPSE       15.25 TCPU       13.37
 NUMERICALLY INTEGRATED DENSITY     89.9998189398
 TTTTTTTTTTTTTTTTTTTTTTTTTTTTTT NUMDFT      TELAPSE       15.62 TCPU       13.75
 CYC   8 ETOT(AU) -5.704328558873E+02 DETOT  5.45E-04 tst  9.92E-05 PX  1.55E-02
 TTTTTTTTTTTTTTTTTTTTTTTTTTTTTT DIIS        TELAPSE       15.66 TCPU       13.78
 DIIS TEST: 0.15914E-01 AT SCF   CYCLE   8 - DIIS ACTIVE - HISTORY:     8 CYCLES
 TTTTTTTTTTTTTTTTTTTTTTTTTTTTTT FDIK        TELAPSE       15.84 TCPU       13.96
 POSSIBLY CONDUCTING STATE - EFERMI(AU) -1.7951205E-01 (RES. CHARGE  2.20E-12;IT. 10)
 TTTTTTTTTTTTTTTTTTTTTTTTTTTTTT PDIG        TELAPSE       15.94 TCPU       14.05
 CHARGE NORMALIZATION FACTOR   1.00000000
 TOTAL ATOMIC CHARGES:
   6.0314960   5.9777257   5.9779653   5.9936764   6.0481312   5.9730652
   6.0475144   6.0172598   6.0196451   6.0380255   5.9660892   5.9925041
   5.9662416   5.9761056   5.9745550
 TTTTTTTTTTTTTTTTTTTTTTTTTTTTTT MOQGAD      TELAPSE       15.94 TCPU       14.05
 TTTTTTTTTTTTTTTTTTTTTTTTTTTTTT SHELLXN     TELAPSE       16.65 TCPU       14.77
 TTTTTTTTTTTTTTTTTTTTTTTTTTTTTT MONMO3      TELAPSE       16.79 TCPU       14.91
 NUMERICALLY INTEGRATED DENSITY     89.9998183929
 TTTTTTTTTTTTTTTTTTTTTTTTTTTTTT NUMDFT      TELAPSE       17.04 TCPU       15.16
 CYC   9 ETOT(AU) -5.704348589158E+02 DETOT -2.00E-03 tst  4.68E-05 PX  9.26E-03
 TTTTTTTTTTTTTTTTTTTTTTTTTTTTTT DIIS        TELAPSE       17.06 TCPU       15.18
 DIIS TEST: 0.96472E-03 AT SCF   CYCLE   9 - DIIS ACTIVE - HISTORY:     9 CYCLES
 TTTTTTTTTTTTTTTTTTTTTTTTTTTTTT FDIK        TELAPSE       17.24 TCPU       15.36
 POSSIBLY CONDUCTING STATE - EFERMI(AU) -1.7968631E-01 (RES. CHARGE  5.47E-13;IT. 12)
 TTTTTTTTTTTTTTTTTTTTTTTTTTTTTT PDIG        TELAPSE       17.34 TCPU       15.46
 CHARGE NORMALIZATION FACTOR   1.00000000
 TOTAL ATOMIC CHARGES:
   6.0313627   5.9744555   5.9741279   5.9886850   6.0389949   5.9688058
   6.0401051   6.0116293   6.0079981   6.0425095   5.9815088   5.9870891
   5.9810684   5.9844890   5.9871710
 TTTTTTTTTTTTTTTTTTTTTTTTTTTTTT MOQGAD      TELAPSE       17.35 TCPU       15.46
 TTTTTTTTTTTTTTTTTTTTTTTTTTTTTT SHELLXN     TELAPSE       18.06 TCPU       16.17
 TTTTTTTTTTTTTTTTTTTTTTTTTTTTTT MONMO3      TELAPSE       18.20 TCPU       16.31
 NUMERICALLY INTEGRATED DENSITY     89.9998181848
 TTTTTTTTTTTTTTTTTTTTTTTTTTTTTT NUMDFT      TELAPSE       18.45 TCPU       16.56
 CYC  10 ETOT(AU) -5.704349439247E+02 DETOT -8.50E-05 tst  2.70E-06 PX  2.89E-03
 TTTTTTTTTTTTTTTTTTTTTTTTTTTTTT DIIS        TELAPSE       18.47 TCPU       16.58
 DIIS TEST: 0.23273E-03 AT SCF   CYCLE  10 - DIIS ACTIVE - HISTORY:    10 CYCLES
 TTTTTTTTTTTTTTTTTTTTTTTTTTTTTT FDIK        TELAPSE       18.65 TCPU       16.76
 POSSIBLY CONDUCTING STATE - EFERMI(AU) -1.7969848E-01 (RES. CHARGE  2.10E-11;IT.  8)
 TTTTTTTTTTTTTTTTTTTTTTTTTTTTTT PDIG        TELAPSE       18.75 TCPU       16.86
 CHARGE NORMALIZATION FACTOR   1.00000000
 TOTAL ATOMIC CHARGES:
   6.0406139   5.9735307   5.9740959   5.9841683   6.0365568   5.9685703
   6.0345055   6.0097173   6.0157555   6.0446441   5.9789966   5.9902994
   5.9793614   5.9875738   5.9816105
 TTTTTTTTTTTTTTTTTTTTTTTTTTTTTT MOQGAD      TELAPSE       18.75 TCPU       16.86
 TTTTTTTTTTTTTTTTTTTTTTTTTTTTTT SHELLXN     TELAPSE       19.47 TCPU       17.57
 TTTTTTTTTTTTTTTTTTTTTTTTTTTTTT MONMO3      TELAPSE       19.60 TCPU       17.71
 NUMERICALLY INTEGRATED DENSITY     89.9998182355
 TTTTTTTTTTTTTTTTTTTTTTTTTTTTTT NUMDFT      TELAPSE       19.86 TCPU       17.96
 CYC  11 ETOT(AU) -5.704349464583E+02 DETOT -2.53E-06 tst  2.13E-06 PX  1.54E-03
 TTTTTTTTTTTTTTTTTTTTTTTTTTTTTT DIIS        TELAPSE       19.88 TCPU       17.98
 DIIS TEST: 0.21904E-03 AT SCF   CYCLE  11 - DIIS ACTIVE - HISTORY:    11 CYCLES
 TTTTTTTTTTTTTTTTTTTTTTTTTTTTTT FDIK        TELAPSE       20.05 TCPU       18.15
 POSSIBLY CONDUCTING STATE - EFERMI(AU) -1.7965274E-01 (RES. CHARGE  4.25E-11;IT. 10)
 TTTTTTTTTTTTTTTTTTTTTTTTTTTTTT PDIG        TELAPSE       20.15 TCPU       18.25
 CHARGE NORMALIZATION FACTOR   1.00000000
 TOTAL ATOMIC CHARGES:
   6.0332319   5.9740601   5.9738361   5.9836730   6.0366843   5.9687856
   6.0386115   6.0153468   6.0116909   6.0478714   5.9797164   5.9918576
   5.9795654   5.9797095   5.9853596
 TTTTTTTTTTTTTTTTTTTTTTTTTTTTTT MOQGAD      TELAPSE       20.15 TCPU       18.25
 TTTTTTTTTTTTTTTTTTTTTTTTTTTTTT SHELLXN     TELAPSE       20.86 TCPU       18.96
 TTTTTTTTTTTTTTTTTTTTTTTTTTTTTT MONMO3      TELAPSE       21.00 TCPU       19.10
 NUMERICALLY INTEGRATED DENSITY     89.9998181802
 TTTTTTTTTTTTTTTTTTTTTTTTTTTTTT NUMDFT      TELAPSE       21.25 TCPU       19.35
 CYC  12 ETOT(AU) -5.704349631559E+02 DETOT -1.67E-05 tst  2.99E-06 PX  1.22E-03
 TTTTTTTTTTTTTTTTTTTTTTTTTTTTTT DIIS        TELAPSE       21.27 TCPU       19.37
 DIIS TEST: 0.82121E-04 AT SCF   CYCLE  12 - DIIS ACTIVE - HISTORY:    12 CYCLES
 TTTTTTTTTTTTTTTTTTTTTTTTTTTTTT FDIK        TELAPSE       21.45 TCPU       19.55
 POSSIBLY CONDUCTING STATE - EFERMI(AU) -1.7964219E-01 (RES. CHARGE  4.62E-10;IT.  8)
 TTTTTTTTTTTTTTTTTTTTTTTTTTTTTT PDIG        TELAPSE       21.57 TCPU       19.67
 CHARGE NORMALIZATION FACTOR   1.00000000
 TOTAL ATOMIC CHARGES:
   6.0315387   5.9740863   5.9740829   5.9855413   6.0384338   5.9688401
   6.0374791   6.0123532   6.0134297   6.0477460   5.9798188   5.9907006
   5.9796549   5.9845819   5.9817127
 TTTTTTTTTTTTTTTTTTTTTTTTTTTTTT MOQGAD      TELAPSE       21.57 TCPU       19.67
 TTTTTTTTTTTTTTTTTTTTTTTTTTTTTT SHELLXN     TELAPSE       22.45 TCPU       20.35
 TTTTTTTTTTTTTTTTTTTTTTTTTTTTTT MONMO3      TELAPSE       22.59 TCPU       20.49
 NUMERICALLY INTEGRATED DENSITY     89.9998181607
 TTTTTTTTTTTTTTTTTTTTTTTTTTTTTT NUMDFT      TELAPSE       22.96 TCPU       20.86
 CYC  13 ETOT(AU) -5.704349695212E+02 DETOT -6.37E-06 tst  1.20E-06 PX  6.95E-04
 TTTTTTTTTTTTTTTTTTTTTTTTTTTTTT DIIS        TELAPSE       22.99 TCPU       20.89
 DIIS TEST: 0.24958E-04 AT SCF   CYCLE  13 - DIIS ACTIVE - HISTORY:    13 CYCLES
 TTTTTTTTTTTTTTTTTTTTTTTTTTTTTT FDIK        TELAPSE       23.36 TCPU       21.24
 POSSIBLY CONDUCTING STATE - EFERMI(AU) -1.7964630E-01 (RES. CHARGE  9.83E-10;IT.  6)
 TTTTTTTTTTTTTTTTTTTTTTTTTTTTTT PDIG        TELAPSE       23.46 TCPU       21.34
 CHARGE NORMALIZATION FACTOR   1.00000000
 TOTAL ATOMIC CHARGES:
   6.0336099   5.9741582   5.9741730   5.9861533   6.0370791   5.9688164
   6.0371690   6.0130774   6.0130571   6.0470576   5.9793135   5.9900739
   5.9792315   5.9835201   5.9835102
 TTTTTTTTTTTTTTTTTTTTTTTTTTTTTT MOQGAD      TELAPSE       23.46 TCPU       21.34
 TTTTTTTTTTTTTTTTTTTTTTTTTTTTTT SHELLXN     TELAPSE       24.17 TCPU       22.06
 TTTTTTTTTTTTTTTTTTTTTTTTTTTTTT MONMO3      TELAPSE       24.31 TCPU       22.19
 NUMERICALLY INTEGRATED DENSITY     89.9998181769
 TTTTTTTTTTTTTTTTTTTTTTTTTTTTTT NUMDFT      TELAPSE       24.66 TCPU       22.55
 CYC  14 ETOT(AU) -5.704349721693E+02 DETOT -2.65E-06 tst  2.16E-07 PX  3.28E-04
 TTTTTTTTTTTTTTTTTTTTTTTTTTTTTT DIIS        TELAPSE       24.73 TCPU       22.61
 DIIS TEST: 0.62021E-06 AT SCF   CYCLE  14 - DIIS ACTIVE - HISTORY:    14 CYCLES
 TTTTTTTTTTTTTTTTTTTTTTTTTTTTTT FDIK        TELAPSE       24.91 TCPU       22.77
 POSSIBLY CONDUCTING STATE - EFERMI(AU) -1.7964411E-01 (RES. CHARGE  6.55E-10;IT.  6)
 TTTTTTTTTTTTTTTTTTTTTTTTTTTTTT PDIG        TELAPSE       25.01 TCPU       22.87
 CHARGE NORMALIZATION FACTOR   1.00000000
 TOTAL ATOMIC CHARGES:
   6.0336479   5.9742941   5.9742963   5.9860525   6.0370183   5.9688831
   6.0369943   6.0130046   6.0129732   6.0474527   5.9793081   5.9899444
   5.9792046   5.9835018   5.9834239
 TTTTTTTTTTTTTTTTTTTTTTTTTTTTTT MOQGAD      TELAPSE       25.01 TCPU       22.87
 TTTTTTTTTTTTTTTTTTTTTTTTTTTTTT SHELLXN     TELAPSE       25.73 TCPU       23.58
 TTTTTTTTTTTTTTTTTTTTTTTTTTTTTT MONMO3      TELAPSE       25.86 TCPU       23.72
 NUMERICALLY INTEGRATED DENSITY     89.9998181749
 TTTTTTTTTTTTTTTTTTTTTTTTTTTTTT NUMDFT      TELAPSE       26.21 TCPU       24.07
 CYC  15 ETOT(AU) -5.704349721702E+02 DETOT -8.72E-10 tst  2.98E-09 PX  5.43E-05
 TTTTTTTTTTTTTTTTTTTTTTTTTTTTTT DIIS        TELAPSE       26.24 TCPU       24.10
 DIIS TEST: 0.61248E-07 AT SCF   CYCLE  15 - DIIS ACTIVE - HISTORY:    15 CYCLES
 TTTTTTTTTTTTTTTTTTTTTTTTTTTTTT FDIK        TELAPSE       26.41 TCPU       24.26
 POSSIBLY CONDUCTING STATE - EFERMI(AU) -1.7964426E-01 (RES. CHARGE  4.26E-14;IT.  6)
 TTTTTTTTTTTTTTTTTTTTTTTTTTTTTT PDIG        TELAPSE       26.50 TCPU       24.36
 CHARGE NORMALIZATION FACTOR   1.00000000
 TOTAL ATOMIC CHARGES:
   6.0336435   5.9742293   5.9742598   5.9860843   6.0369210   5.9688562
   6.0370136   6.0129447   6.0130151   6.0475393   5.9793018   5.9899965
   5.9792346   5.9835029   5.9834572
 TTTTTTTTTTTTTTTTTTTTTTTTTTTTTT MOQGAD      TELAPSE       26.50 TCPU       24.36
 TTTTTTTTTTTTTTTTTTTTTTTTTTTTTT SHELLXN     TELAPSE       27.22 TCPU       25.07
 +++ ENERGIES IN A.U. +++
 ::: EXT EL-POLE                                  -8.0339995631034E+02
 ::: EXT EL-SPHEROPOLE                             6.2346132569560E+00
 ::: BIELET ZONE E-E                               1.1950114675762E+03
 ::: TOTAL E-E                                     3.9784612452282E+02
 ::: TOTAL E-N + N-E                              -1.5744023113693E+03
 ::: TOTAL N-N                                     1.1938506456101E+02
 ::: KINETIC ENERGY                                5.6686923835436E+02
 ::: PSEUDO TOTAL   ENERGY                        -4.9030188393113E+02
 ::: VIRIAL COEFFICIENT                            1.0724266420158E+00
 TTTTTTTTTTTTTTTTTTTTTTTTTTTTTT MONMO3      TELAPSE       27.35 TCPU       25.20
 NUMERICALLY INTEGRATED DENSITY     89.9998181741
 TTTTTTTTTTTTTTTTTTTTTTTTTTTTTT NUMDFT      TELAPSE       27.61 TCPU       25.46
 CYC  16 ETOT(AU) -5.704349721431E+02 DETOT  2.71E-08 tst  3.56E-10 PX  5.43E-05

 == SCF ENDED - CONVERGENCE ON ENERGY      E(AU) -5.7043497214309E+02 CYCLES  16


 ENERGY EXPRESSION=HARTREE+FOCK EXCH*0.00000+(PBE        EXCH)*1.00000+PBE        CORR


 TOTAL ENERGY(DFT)(AU)( 16) -5.7043497214309E+02 DE 2.7E-08 tester 3.6E-10
 TTTTTTTTTTTTTTTTTTTTTTTTTTTTTT EDFT        TELAPSE       27.61 TCPU       25.46

 *******************************************************************************
 *                             FORCE CALCULATION                               *
 *******************************************************************************

 TTTTTTTTTTTTTTTTTTTTTTTTTTTTTT NUMDFG      TELAPSE       28.24 TCPU       26.09
 INFORMATION **** EXCPOG **** EXCH. BIPO BUFFER LENGTH (WORDS) =           0
 INFORMATION **** GENPOG **** BIPO BUFFER LENGTH (WORDS) =     1108700
 TTTTTTTTTTTTTTTTTTTTTTTTTTTTTT SHELXG      TELAPSE       30.73 TCPU       28.58

 CARTESIAN FORCES IN HARTREE/BOHR (ANALYTICAL)
   ATOM                     X                   Y                   Z
   1   6             6.132996314701E-02 -3.533713550079E-02 -1.890797328818E-09
   2   6            -1.331474776231E-02  5.403165346712E-03 -6.122446872898E-09
   3   6            -1.123581288766E-02  8.824731010419E-03 -1.126507537256E-08
   4   6            -6.499276542475E-02  3.746988549786E-02 -6.096339812065E-09
   5   6             4.270598593774E-02  4.922310859326E-02 -1.952925341567E-09
   6   6             3.837178603462E-02 -2.203975804221E-02 -4.898822355011E-10
   7   6            -2.131253682260E-02 -6.169714954634E-02  1.519806848311E-08
   8   6             1.458423247235E-02  6.900425484028E-02  6.132350343201E-09
   9   6            -5.254542129185E-02 -4.712868667387E-02  5.921586903330E-09
  10   6             2.569090187251E-02 -1.487393224892E-02  9.383428188406E-09
  11   6             3.656036191715E-02 -2.128449893985E-02  2.574632787362E-09
  12   6            -3.816517499722E-03  2.196749949834E-03 -3.380883467071E-09
  13   6             3.664380040604E-02 -2.102527262439E-02 -4.821897260324E-09
  14   6            -7.627418091871E-02 -2.990229409737E-02  5.290140407896E-11
  15   6            -1.239504917961E-02  8.116683243542E-02 -3.242693331842E-09

 RESULTANT FORCE     2.107758412251E-13  6.028511023715E-14  2.708683970944E-14

 SYMMETRY ALLOWED FORCES (ANALYTICAL) (DIRECTION, FORCE)

    1  6.3418238E-02    2  3.6688790E-02    3 -1.9571630E-09    4 -7.2231258E-03
    5 -6.5352870E-03    6 -6.4937206E-09    7 -9.8041131E-03    8 -3.4043509E-03
    9 -1.2366637E-08   10 -6.4642365E-02   11 -3.7366469E-02   12 -8.0453840E-09
   13 -2.5009856E-02   14  6.3052775E-02   15 -4.4676268E-09   16  3.5120039E-02
   17  2.8192072E-02   18 -3.3969644E-09   19  4.4040646E-02   20 -4.4335364E-02
   21  1.2841663E-08   22 -5.1880959E-02   23  5.2825212E-02   24  4.8694166E-09
   25  1.2471292E-02   26 -6.4515697E-02   27  5.3950674E-09   28  2.7008484E-02
   29  1.5552148E-02   30  1.0175787E-08   31  4.5361720E-02   32  2.5988107E-02
   33  4.8502783E-09   34  1.1768877E-02   35  6.7305279E-03   36 -6.1515552E-10
   37  6.6051164E-02   38  3.8212525E-02   39 -2.6348355E-09   40  4.5430988E-02
   41 -7.8386686E-02   42  2.3303374E-09
 TTTTTTTTTTTTTTTTTTTTTTTTTTTTTT TOTGRA      TELAPSE       31.18 TCPU       29.04
 INFORMATION **** opta001 **** GEOMETRY OUTPUT FILE
 CLASSICAL MODEL (SCHLEGEL) USED AS INITIAL HESSIAN MATRIX
 REFERENCE GEOMETRY DEFINED

 MAX GRADIENT      0.078387  THRESHOLD              0.000450 CONVERGED NO
 RMS GRADIENT      0.034295  THRESHOLD              0.000300 CONVERGED NO

 GRADIENT NORM     0.222260  GRADIENT THRESHOLD     0.500000

 EIGENVALUES OF THE ESTIMATED HESSIAN
  0.6628E-03  0.1336E-02  0.3739E-02  0.4123E-02  0.9050E-02  0.1176E-01
  0.1358E-01  0.1867E-01  0.3432E-01  0.3755E-01  0.4070E-01  0.4968E-01
  0.6035E-01  0.6872E-01  0.7579E-01  0.8258E-01  0.1146      0.1233    
  0.1358      0.1364      0.1706      0.1932      0.2185      0.2831    
  0.3574      0.4258      0.4493      0.5498      0.6319      0.6751    
  0.6890      0.7285      0.9125      0.9848       1.019       1.071    
   1.140       1.149       1.192       1.211       1.409       1.441    
 NEWTON STEP ( 0.3973142999E+00) EXCEEDS TRUST RADIUS ( 0.2000000000E+00)
 LEVEL SHIFT     0.6628111483E-03

 INITIAL TRUST RADIUS    0.2000000000E+00

 PREDICTED ENERGY CHANGE    -0.246E-01

 INITIAL DISPLACEMENTS
  0.077168  0.040425  0.002062 -0.002603  0.021833 -0.000723  0.020186 -0.003899
  0.004179 -0.030961 -0.017906  0.024676 -0.046372  0.025024 -0.030888  0.018292
  0.020782 -0.020215  0.009947 -0.037448 -0.000737 -0.014809  0.070463 -0.002056
  0.061421 -0.040405  0.000275  0.011970 -0.000538  0.068122  0.001282  0.014795
  0.007760  0.030744  0.024651  0.006865  0.035816  0.013430  0.028209  0.015355
 -0.054146 -0.022397
 TTTTTTTTTTTTTTTTTTTTTTTTTTTTTT OPTI        TELAPSE       31.20 TCPU       29.05

 OPTOPTOPTOPTOPTOPTOPTOPTOPTOPTOPTOPTOPTOPTOPTOPTOPTOPTOPTOPTOPTOPTOPTOPTOPTOPT

 - INFORMATION ON SCF MOVED TO SCFOUT.LOG
 GEOMETRY OPTIMIZATION INFORMATION STORED IN OPTINFO.DAT

 OPTOPTOPTOPTOPTOPTOPTOPTOPTOPTOPTOPTOPTOPTOPTOPTOPTOPTOPTOPTOPTOPTOPTOPTOPTOPT
 *******************************************************************************
 COORDINATE OPTIMIZATION - POINT    2
 *******************************************************************************
 LATTICE PARAMETERS (ANGSTROMS AND DEGREES) - BOHR = 0.5291772083 ANGSTROM
 PRIMITIVE CELL - CENTRING CODE 1/0 VOLUME=   412.228566 - DENSITY  0.725 g/cm^3
         A              B              C           ALPHA      BETA       GAMMA 
     7.40317242     7.40317242     8.68503800    90.000000  90.000000 120.000000
 *******************************************************************************
 ATOMS IN THE ASYMMETRIC UNIT   15 - ATOMS IN THE UNIT CELL:   15
     ATOM                 X/A                 Y/B                 Z/C    
 *******************************************************************************
      1 T   6 C     1.180517239595E-01  2.254456416687E-01  3.001213726587E-01
      2 T   6 C     4.446376294270E-01  2.237284870286E-01  2.999488879724E-01
      3 T   6 C     4.451273864985E-01 -4.451174575002E-01  3.002392023893E-01
      4 T   6 C     4.409666870024E-01 -1.128641624662E-01  3.014137108230E-01
      5 T   6 C    -2.247924393253E-01  2.239821268640E-01  2.980489212298E-01
      6 T   6 C    -2.203450313289E-01 -4.432235047398E-01  2.988542906426E-01
      7 T   6 C    -2.234140657231E-01 -1.146124127678E-01  3.001102769522E-01
      8 T   6 C     2.236453693926E-01  1.163284373325E-01  3.000407192711E-01
      9 T   6 C     2.241892796073E-01  4.403568595281E-01  3.001901925847E-01
     10 T   6 C     2.220089431254E-01 -2.227482318108E-01  3.039611065757E-01
     11 T   6 C    -4.449425567911E-01  1.117259355295E-01  2.998371824152E-01
     12 T   6 C    -4.429435100050E-01  4.454560665033E-01  2.996707639180E-01
     13 T   6 C    -4.441128899310E-01 -2.226549597452E-01  3.005911630744E-01
     14 T   6 C    -1.153977924304E-01  4.394940142602E-01  2.975211401776E-01
     15 T   6 C    -1.137898445882E-01 -2.208523952398E-01  2.994510693153E-01

 T = ATOM BELONGING TO THE ASYMMETRIC UNIT

 TOTAL ENERGY(DFT)(AU)( 26) -5.7046216167284E+02     DE (AU)   -2.719E-02

 UPDATED TRUST RADIUS     0.200E+00

 SYMMETRY ALLOWED FORCES  (COORDINATE, FORCE)

    1  3.7930231E-02    2  2.4032684E-02    3  1.0462973E-03    4 -4.1582765E-04
    5 -1.0826315E-02    6 -4.2748293E-04    7 -1.0520331E-02    8  3.9521386E-03
    9  1.0229011E-05   10 -4.7755423E-02   11 -2.7312249E-02   12 -1.3306711E-03
   13 -1.4898727E-02   14  4.8922757E-02   15  6.0976127E-04   16  3.3732027E-02
   17  2.4383546E-02   18 -5.7482982E-04   19  3.4275300E-02   20 -2.8996055E-02
   21 -4.4013190E-05   22 -2.8240554E-02   23  3.8372109E-02   24  8.6552609E-05
   25  1.3469044E-02   26 -3.9197862E-02   27 -1.3309305E-04   28  2.4524583E-02
   29  1.3884251E-02   30  1.4141055E-03   31  3.6103759E-02   32  1.5976171E-02
   33 -3.5709485E-04   34  1.5808539E-02   35  7.0082408E-03   36 -6.5806846E-05
   37  5.0921627E-02   38  3.3050550E-02   39  4.9206142E-06   40  2.8936088E-02
   41 -4.9178201E-02   42  5.9149254E-04

 GRADIENT NORM     0.158862  GRADIENT THRESHOLD     0.500000

 EIGENVALUES OF THE ESTIMATED HESSIAN
  0.6564E-03  0.1335E-02  0.3738E-02  0.4122E-02  0.9045E-02  0.1175E-01
  0.1357E-01  0.1866E-01  0.3421E-01  0.3755E-01  0.4070E-01  0.4968E-01
  0.6045E-01  0.6870E-01  0.7577E-01  0.8184E-01  0.1106      0.1204    
  0.1357      0.1359      0.1664      0.1933      0.2131      0.2800    
  0.3561      0.4466      0.4577      0.5082      0.5848      0.6321    
  0.6812      0.7270      0.8280      0.9843       1.065       1.078    
   1.141       1.149       1.163       1.209       1.409       1.447    
 NEWTON STEP ( 0.3180526751E+01) EXCEEDS TRUST RADIUS ( 0.2000000000E+00)
 LEVEL SHIFT    -0.7926079679E-02

 PREDICTED ENERGY CHANGE    -0.161E-01

 MAX GRADIENT      0.050922  THRESHOLD              0.000450 CONVERGED NO
 RMS GRADIENT      0.024513  THRESHOLD              0.000300 CONVERGED NO
 MAX DISPLAC.      0.110665  THRESHOLD              0.001800 CONVERGED NO
 RMS DISPLAC.      0.030861  THRESHOLD              0.001200 CONVERGED NO
 TTTTTTTTTTTTTTTTTTTTTTTTTTTTTT OPTI        TELAPSE       75.16 TCPU       72.77
 *******************************************************************************
 COORDINATE OPTIMIZATION - POINT    3
 *******************************************************************************
 LATTICE PARAMETERS (ANGSTROMS AND DEGREES) - BOHR = 0.5291772083 ANGSTROM
 PRIMITIVE CELL - CENTRING CODE 1/0 VOLUME=   412.228566 - DENSITY  0.725 g/cm^3
         A              B              C           ALPHA      BETA       GAMMA 
     7.40317242     7.40317242     8.68503800    90.000000  90.000000 120.000000
 *******************************************************************************
 ATOMS IN THE ASYMMETRIC UNIT   15 - ATOMS IN THE UNIT CELL:   15
     ATOM                 X/A                 Y/B                 Z/C    
 *******************************************************************************
      1 T   6 C     1.234973499395E-01  2.284308439088E-01  3.015470834034E-01
      2 T   6 C     4.452889576023E-01  2.238157585001E-01  2.988229830348E-01
      3 T   6 C     4.460922772957E-01 -4.443473239285E-01  2.997820908336E-01
      4 T   6 C     4.384330180936E-01 -1.143449841835E-01  2.992086365390E-01
      5 T   6 C    -2.259761269889E-01  2.261466057427E-01  2.998784914431E-01
      6 T   6 C    -2.195188843908E-01 -4.425527611037E-01  2.971204101315E-01
      7 T   6 C    -2.241624891611E-01 -1.172768409341E-01  2.991647837977E-01
      8 T   6 C     2.253974361898E-01  1.201327731891E-01  3.004879813052E-01
      9 T   6 C     2.264815303801E-01  4.384837242376E-01  3.012360090754E-01
     10 T   6 C     2.226140932286E-01 -2.234341247504E-01  3.104029207657E-01
     11 T   6 C    -4.448648058080E-01  1.114065220682E-01  2.979041738638E-01
     12 T   6 C    -4.418971931571E-01  4.459883420983E-01  2.984343245101E-01
     13 T   6 C    -4.435427652788E-01 -2.220711034556E-01  2.991384422559E-01
     14 T   6 C    -1.209057714396E-01  4.356279070751E-01  2.987539803716E-01
     15 T   6 C    -1.180477376157E-01 -2.215608940188E-01  2.981176886691E-01

 T = ATOM BELONGING TO THE ASYMMETRIC UNIT

 TOTAL ENERGY(DFT)(AU)( 16) -5.7047753242950E+02     DE (AU)   -1.537E-02

 UPDATED TRUST RADIUS     0.200E+00

 SYMMETRY ALLOWED FORCES  (COORDINATE, FORCE)

    1  1.5780932E-02    2  1.0932392E-02    3  3.0915336E-03    4 -5.4463856E-04
    5 -7.8517708E-03    6 -5.1937201E-04    7 -7.2593044E-03    8  2.4443604E-03
    9 -6.0027002E-04   10 -3.2014162E-02   11 -1.7429933E-02   12  7.9830406E-04
   13 -9.5093303E-03   14  3.0611360E-02   15 -1.4723049E-03   16  2.8812343E-02
   17  1.9230562E-02   18  1.4365013E-03   19  2.2581658E-02   20 -1.7967519E-02
   21  8.9220656E-05   22 -8.7691065E-03   23  2.3669550E-02   24 -8.3958926E-04
   25  1.2852803E-02   26 -1.6552843E-02   27 -8.9134684E-04   28  1.8387698E-02
   29  1.0020072E-02   30  1.6202783E-03   31  2.6400669E-02   32  8.8302858E-03
   33  2.2724666E-03   34  1.1183224E-02   35  4.2398482E-03   36  5.3563676E-04
   37  3.5620166E-02   38  2.4247787E-02   39  6.2290514E-04   40  1.8279893E-02
   41 -2.8474010E-02   42 -1.3894137E-04

 GRADIENT NORM     0.101674  GRADIENT THRESHOLD     0.500000

 EIGENVALUES OF THE ESTIMATED HESSIAN
  0.6423E-03  0.1359E-02  0.3757E-02  0.4131E-02  0.9269E-02  0.1192E-01
  0.1419E-01  0.1894E-01  0.3402E-01  0.3763E-01  0.4072E-01  0.4954E-01
  0.6021E-01  0.6866E-01  0.7512E-01  0.8290E-01  0.1116      0.1199    
  0.1351      0.1368      0.1694      0.1934      0.2158      0.2785    
  0.3559      0.4392      0.4488      0.5434      0.6317      0.6500    
  0.6802      0.7271      0.8099      0.9846       1.070       1.133    
   1.142       1.149       1.175       1.220       1.409       1.458    
 NEWTON STEP ( 0.7746286608E+01) EXCEEDS TRUST RADIUS ( 0.2000000000E+00)
 LEVEL SHIFT    -0.2408165069E-01

 PREDICTED ENERGY CHANGE    -0.977E-02

 MAX GRADIENT      0.035620  THRESHOLD              0.000450 CONVERGED NO
 RMS GRADIENT      0.015689  THRESHOLD              0.000300 CONVERGED NO
 MAX DISPLAC.      0.068582  THRESHOLD              0.001800 CONVERGED NO
 RMS DISPLAC.      0.030861  THRESHOLD              0.001200 CONVERGED NO
 TTTTTTTTTTTTTTTTTTTTTTTTTTTTTT OPTI        TELAPSE      104.37 TCPU      101.71
 *******************************************************************************
 COORDINATE OPTIMIZATION - POINT    4
 *******************************************************************************
 LATTICE PARAMETERS (ANGSTROMS AND DEGREES) - BOHR = 0.5291772083 ANGSTROM
 PRIMITIVE CELL - CENTRING CODE 1/0 VOLUME=   412.228566 - DENSITY  0.725 g/cm^3
         A              B              C           ALPHA      BETA       GAMMA 
     7.40317242     7.40317242     8.68503800    90.000000  90.000000 120.000000
 *******************************************************************************
 ATOMS IN THE ASYMMETRIC UNIT   15 - ATOMS IN THE UNIT CELL:   15
     ATOM                 X/A                 Y/B                 Z/C    
 *******************************************************************************
      1 T   6 C     1.273961192046E-01  2.313482497214E-01  3.035961793639E-01
      2 T   6 C     4.460367242153E-01  2.236793376388E-01  2.986355952508E-01
      3 T   6 C     4.475339207612E-01 -4.430819550783E-01  2.982994215559E-01
      4 T   6 C     4.357642696257E-01 -1.159157315446E-01  3.017974004919E-01
      5 T   6 C    -2.271782326227E-01  2.278978397023E-01  2.956244932571E-01
      6 T   6 C    -2.179243954497E-01 -4.417539118355E-01  2.983271659865E-01
      7 T   6 C    -2.246777350936E-01 -1.198658266487E-01  2.987759987384E-01
      8 T   6 C     2.274987320003E-01  1.239245216281E-01  3.002504692425E-01
      9 T   6 C     2.296193095106E-01  4.382383325083E-01  3.010986982970E-01
     10 T   6 C     2.233441183153E-01 -2.242763968554E-01  3.136647142818E-01
     11 T   6 C    -4.447871655348E-01  1.105861963647E-01  3.007876335817E-01
     12 T   6 C    -4.408506259550E-01  4.464018716774E-01  2.980778757932E-01
     13 T   6 C    -4.425843849692E-01 -2.209562750884E-01  2.986989222765E-01
     14 T   6 C    -1.271247518738E-01  4.311543872908E-01  2.950113079578E-01
     15 T   6 C    -1.231770132443E-01 -2.229361950355E-01  2.973541239248E-01

 T = ATOM BELONGING TO THE ASYMMETRIC UNIT

 TOTAL ENERGY(DFT)(AU)( 17) -5.7048596878279E+02     DE (AU)   -8.436E-03

 UPDATED TRUST RADIUS     0.200E+00

 SYMMETRY ALLOWED FORCES  (COORDINATE, FORCE)

    1  4.9615542E-04    2 -6.8827466E-04    3  2.6731761E-04    4 -7.5079381E-04
    5 -3.1002915E-03    6  1.7552759E-03    7 -1.8148315E-03    8  4.6419474E-04
    9  8.2316344E-04   10 -1.0319791E-02   11 -5.0843176E-03   12  1.0782774E-03
   13 -3.6693442E-03   14  6.7724688E-03   15  2.9635143E-03   16  2.0516232E-02
   17  1.1467499E-02   18 -4.3693631E-03   19  7.2316771E-03   20 -5.7049345E-03
   21 -5.9879049E-04   22  4.0392699E-03   23  1.1150530E-02   24  2.3572193E-03
   25  8.9058608E-03   26 -7.5993142E-05   27  9.4887357E-04   28  7.4787785E-03
   29  2.3600646E-03   30  7.7551722E-04   31  1.4224186E-02   32  1.3527322E-03
   33 -6.1331818E-03   34  5.4375749E-03   35  7.1588382E-04   36 -1.2090877E-03
   37  1.6569557E-02   38  1.2352338E-02   39 -6.3177906E-04   40  4.9000775E-03
   41 -2.5145112E-03   42  5.9192110E-04

 GRADIENT NORM     0.043550  GRADIENT THRESHOLD     0.500000

 EIGENVALUES OF THE ESTIMATED HESSIAN
  0.7029E-03  0.1361E-02  0.3755E-02  0.4128E-02  0.9267E-02  0.1229E-01
  0.1501E-01  0.1960E-01  0.3380E-01  0.3961E-01  0.4056E-01  0.5098E-01
  0.6050E-01  0.6893E-01  0.7890E-01  0.8224E-01  0.1147      0.1214    
  0.1361      0.1376      0.1699      0.1934      0.2137      0.2744    
  0.3537      0.4231      0.4474      0.5458      0.6311      0.6702    
  0.6818      0.7290      0.8142      0.9865       1.071       1.138    
   1.142       1.149       1.194       1.272       1.409       1.484    
 NEWTON STEP ( 0.1670706388E+01) EXCEEDS TRUST RADIUS ( 0.2000000000E+00)
 LEVEL SHIFT    -0.4500592413E-02

 PREDICTED ENERGY CHANGE    -0.327E-02

 MAX GRADIENT      0.020516  THRESHOLD              0.000450 CONVERGED NO
 RMS GRADIENT      0.006720  THRESHOLD              0.000300 CONVERGED NO
 MAX DISPLAC.      0.079370  THRESHOLD              0.001800 CONVERGED NO
 RMS DISPLAC.      0.030861  THRESHOLD              0.001200 CONVERGED NO
 TTTTTTTTTTTTTTTTTTTTTTTTTTTTTT OPTI        TELAPSE      134.51 TCPU      131.43
 *******************************************************************************
 COORDINATE OPTIMIZATION - POINT    5
 *******************************************************************************
 LATTICE PARAMETERS (ANGSTROMS AND DEGREES) - BOHR = 0.5291772083 ANGSTROM
 PRIMITIVE CELL - CENTRING CODE 1/0 VOLUME=   412.228566 - DENSITY  0.725 g/cm^3
         A              B              C           ALPHA      BETA       GAMMA 
     7.40317242     7.40317242     8.68503800    90.000000  90.000000 120.000000
 *******************************************************************************
 ATOMS IN THE ASYMMETRIC UNIT   15 - ATOMS IN THE UNIT CELL:   15
     ATOM                 X/A                 Y/B                 Z/C    
 *******************************************************************************
      1 T   6 C     1.289350956401E-01  2.328554847754E-01  3.071369422305E-01
      2 T   6 C     4.466065449005E-01  2.238251415538E-01  2.985826779091E-01
      3 T   6 C     4.487083507637E-01 -4.422150061136E-01  2.993757457969E-01
      4 T   6 C     4.341975432792E-01 -1.169435785972E-01  2.999606669283E-01
      5 T   6 C    -2.281733280954E-01  2.281766855767E-01  2.997513292270E-01
      6 T   6 C    -2.166167108788E-01 -4.410988142964E-01  2.941771485062E-01
      7 T   6 C    -2.250470042569E-01 -1.209019068630E-01  2.975248351195E-01
      8 T   6 C     2.289707246490E-01  1.262263219668E-01  3.028451969544E-01
      9 T   6 C     2.317591275284E-01  4.388220668140E-01  3.039307279715E-01
     10 T   6 C     2.230688494006E-01 -2.258542159661E-01  3.106127672955E-01
     11 T   6 C    -4.450127519545E-01  1.098152092622E-01  2.956966079522E-01
     12 T   6 C    -4.400713499789E-01  4.467592699887E-01  2.964971116507E-01
     13 T   6 C    -4.420053327430E-01 -2.201472494715E-01  2.989500540036E-01
     14 T   6 C    -1.304056959617E-01  4.289502462283E-01  2.989689204436E-01
     15 T   6 C    -1.260251734028E-01 -2.238252104128E-01  2.959892680108E-01

 T = ATOM BELONGING TO THE ASYMMETRIC UNIT

 TOTAL ENERGY(DFT)(AU)( 15) -5.7048792173390E+02     DE (AU)   -1.953E-03

 UPDATED TRUST RADIUS     0.200E+00

 SYMMETRY ALLOWED FORCES  (COORDINATE, FORCE)

    1 -4.0469451E-03    2 -4.6726047E-03    3 -1.3679123E-04    4 -1.2958420E-03
    5 -8.3457776E-04    6 -3.3402442E-03    7  9.1221603E-04    8 -1.5179687E-03
    9 -7.8377601E-04   10  3.8488024E-04   11  8.5979550E-04   12 -2.3371643E-03
   13  3.4257954E-04   14 -1.9390893E-03   15 -3.0600644E-03   16  1.4906256E-02
   17  6.7248359E-03   18  2.7865214E-03   19  1.3106587E-03   20  4.9530343E-05
   21 -1.6576902E-04   22  7.9435682E-03   23  6.1500000E-03   24  1.1630327E-03
   25  6.0535226E-03   26  6.1896548E-03   27  1.3774637E-03   28  2.5552168E-03
   29 -4.7681821E-04   30  3.1416364E-04   31  7.2450658E-03   32 -1.9252793E-03
   33  8.0528970E-03   34  2.2026132E-03   35 -6.5691843E-04   36  1.6123567E-03
   37  6.7909884E-03   38  6.2358030E-03   39  1.8087295E-03   40 -1.0481352E-03
   41  7.8542847E-03   42 -1.4964699E-03

 GRADIENT NORM     0.028640  GRADIENT THRESHOLD     0.500000

 EIGENVALUES OF THE ESTIMATED HESSIAN
  0.7412E-03  0.1342E-02  0.3762E-02  0.4010E-02  0.9429E-02  0.1356E-01
  0.1633E-01  0.2167E-01  0.3341E-01  0.4023E-01  0.4531E-01  0.6004E-01
  0.6508E-01  0.7084E-01  0.8045E-01  0.1133      0.1173      0.1339    
  0.1357      0.1479      0.1693      0.1933      0.2111      0.2691    
  0.3499      0.4160      0.4472      0.5457      0.6282      0.6685    
  0.6859      0.7316      0.8177      0.9878       1.072       1.126    
   1.141       1.149       1.199       1.309       1.409       1.519    
[...]
   8 C    1     2.4705     4.6686   12 C    0 0 0
   8 C    1     2.4882     4.7020   15 C   -1-1 0
   8 C    1     2.5724     4.8611   11 C    0 0 0

   9 C    1     1.3831     2.6136   10 C    0 0 0
   9 C    1     1.3927     2.6319    1 C    0 0 0
   9 C    1     1.4236     2.6903    3 C    0 0 0
   9 C    1     2.3753     4.4886   13 C    0 0 0
   9 C    1     2.4057     4.5460    8 C    0 0 0
   9 C    1     2.4197     4.5726   14 C   -1 0 0

  10 C    1     1.3831     2.6136    9 C    0 0 0
  10 C    1     1.4663     2.7709   14 C   -1 0 0
  10 C    1     2.2253     4.2051    4 C    0 0 0
  10 C    1     2.4314     4.5947    3 C    0 0 0
  10 C    1     2.4611     4.6508    1 C    0 0 0
  10 C    1     2.5222     4.7662    6 C   -1 0 0

  11 C    1     1.4569     2.7532    2 C    0 0 0
  11 C    1     1.4662     2.7708    4 C    0-1 0
  11 C    1     1.4872     2.8104    5 C    0 0 0
  11 C    1     2.4197     4.5726   13 C    0-1 0
  11 C    1     2.5058     4.7353   12 C    0 0 0
  11 C    1     2.5724     4.8611    8 C    0 0 0

  12 C    1     1.4065     2.6578    3 C    0 0 0
  12 C    1     1.4644     2.7674    6 C    0 0 0
  12 C    1     1.4645     2.7675    2 C    0 0 0
  12 C    1     2.4703     4.6682   15 C    0 0 0
  12 C    1     2.4705     4.6686    8 C    0 0 0
  12 C    1     2.4925     4.7102    9 C    0 0 0

  13 C    1     1.3831     2.6137    4 C    0 0 0
  13 C    1     1.3927     2.6318    7 C    0 0 0
  13 C    1     1.4236     2.6902    3 C    0 0 0
  13 C    1     2.3753     4.4886    9 C    0 0 0
  13 C    1     2.4056     4.5460   15 C    0 0 0
  13 C    1     2.4197     4.5726   11 C    0 1 0

  14 C    1     1.4570     2.7534    6 C    0 0 0
  14 C    1     1.4663     2.7709   10 C    1 0 0
  14 C    1     1.4869     2.8097    5 C    0 0 0
  14 C    1     2.4197     4.5726    9 C    1 0 0
  14 C    1     2.5059     4.7355   12 C    0 0 0
  14 C    1     2.5725     4.8614   15 C    0 0 0

  15 C    1     1.3069     2.4696    7 C    0 0 0
  15 C    1     1.4394     2.7201    6 C    0 0 0
  15 C    1     2.4056     4.5460   13 C    0 0 0
  15 C    1     2.4703     4.6682   12 C    0 0 0
  15 C    1     2.4882     4.7020    8 C    1 1 0
  15 C    1     2.5725     4.8614   14 C    0 0 0


 FINAL OPTIMIZED GEOMETRY - DIMENSIONALITY OF THE SYSTEM      3
 (NON PERIODIC DIRECTION: LATTICE PARAMETER FORMALLY SET TO 500)
 *******************************************************************************
 LATTICE PARAMETERS (ANGSTROMS AND DEGREES) - BOHR = 0.5291772083 ANGSTROM
 PRIMITIVE CELL - CENTRING CODE 1/0 VOLUME=   412.228566 - DENSITY  0.725 g/cm^3
         A              B              C           ALPHA      BETA       GAMMA 
     7.40317242     7.40317242     8.68503800    90.000000  90.000000 120.000000
 *******************************************************************************
 ATOMS IN THE ASYMMETRIC UNIT   15 - ATOMS IN THE UNIT CELL:   15
     ATOM                 X/A                 Y/B                 Z/C    
 *******************************************************************************
      1 T   6 C     1.343040554547E-01  2.517314807845E-01  3.287838779483E-01
      2 T   6 C     4.439728277367E-01  2.283716606476E-01  3.066506697744E-01
      3 T   6 C     4.561115753118E-01 -4.338744383937E-01  3.000026192882E-01
      4 T   6 C     4.376387378368E-01 -1.151132717522E-01  2.944167140926E-01
      5 T   6 C    -2.121880195584E-01  2.344507554363E-01  3.000038140280E-01
      6 T   6 C    -2.061466651290E-01 -4.217510375010E-01  2.933405603589E-01
      7 T   6 C    -2.295359383478E-01 -1.120846918242E-01  2.712294772133E-01
      8 T   6 C     2.207423508933E-01  1.361564609319E-01  3.130494224640E-01
      9 T   6 C     2.359331650472E-01  4.683743461688E-01  3.184474053605E-01
     10 T   6 C     1.373591586417E-01 -4.154265721947E-01  3.055774618110E-01
     11 T   6 C    -4.440193270784E-01  1.131834382981E-01  3.036805736508E-01
     12 T   6 C    -4.342034845971E-01  4.564384552553E-01  3.000003893681E-01
     13 T   6 C    -4.461656611875E-01 -2.137029477411E-01  2.815624804769E-01
     14 T   6 C    -9.095377597334E-02  4.662249102828E-01  2.963256322595E-01
     15 T   6 C    -1.139601101610E-01 -1.985341039532E-01  2.869289019056E-01

 T = ATOM BELONGING TO THE ASYMMETRIC UNIT
 INFORMATION **** fort.34 **** GEOMETRY OUTPUT FILE

 DIRECT LATTICE VECTORS CARTESIAN COMPONENTS (ANGSTROM)
          X                    Y                    Z
   0.370158621205E+01  -0.641133538787E+01   0.000000000000E+00
   0.370158621205E+01   0.641133538787E+01   0.000000000000E+00
   0.000000000000E+00   0.000000000000E+00   0.868503800000E+01


 CARTESIAN COORDINATES - PRIMITIVE CELL
 *******************************************************************************
 *      ATOM          X(ANGSTROM)         Y(ANGSTROM)         Z(ANGSTROM)
 *******************************************************************************
    1     6 C     1.428943818304E+00  7.528666075226E-01  2.855500473768E+00
    2     6 C     2.488741087951E+00 -1.382291392223E+00  2.663272719716E+00
    3     6 C     3.783898891460E+00  7.053365634903E-01  2.605534148617E+00
    4     6 C     4.895442030343E+00  2.867456868074E+00  2.557020349729E+00
    5     6 C     3.783993648217E+00 -3.547784404150E+00  2.605544524978E+00
    6     6 C     5.078954945466E+00 -1.382311942367E+00  2.547673913658E+00
    7     6 C     6.138634209702E+00  7.530193331861E-01  2.355638316318E+00
    8     6 C     1.321091720949E+00 -5.423085096240E-01  2.718846129978E+00
    9     6 C     2.607054972560E+00  1.490258370122E+00  2.765727816557E+00
   10     6 C     2.672295708021E+00  2.867240669847E+00  2.653951867772E+00
   11     6 C     2.476968647689E+00 -2.838921579991E+00  2.637477322019E+00
   12     6 C     3.783890872862E+00 -7.011312009726E-01  2.605514781676E+00
   13     6 C     4.960611879524E+00  1.490396421079E+00  2.445380842316E+00
   14     6 C     5.090684668589E+00 -2.839075959307E+00  2.573599376548E+00
   15     6 C     6.246448149788E+00 -5.422322392928E-01  2.491988416348E+00

 ****    1 SYMMOPS - TRANSLATORS IN FRACTIONAL UNITS
 **** MATRICES AND TRANSLATORS IN THE CRYSTALLOGRAPHIC REFERENCE FRAME
   V INV                    ROTATION MATRICES                   TRANSLATORS
   1   1  1.00  0.00  0.00  0.00  1.00  0.00  0.00  0.00  1.00  0.00  0.00  0.00
 TTTTTTTTTTTTTTTTTTTTTTTTTTTTTT END         TELAPSE     1343.32 TCPU     1327.10
 EEEEEEEEEE TERMINATION  DATE 01 11 2022 TIME 22:51:35.7
NODE    0 CPU TIME =      1327.103
    TOTAL CPU TIME =    170964.629
Note: The following floating-point exceptions are signalling: IEEE_UNDERFLOW_FLAG IEEE_DENORMAL
Note: The following floating-point exceptions are signalling: IEEE_UNDERFLOW_FLAG IEEE_DENORMAL
Note: The following floating-point exceptions are signalling: IEEE_UNDERFLOW_FLAG IEEE_DENORMAL
Note: The following floating-point exceptions are signalling: IEEE_UNDERFLOW_FLAG IEEE_DENORMAL
Note: The following floating-point exceptions are signalling: IEEE_UNDERFLOW_FLAG IEEE_DENORMAL
Note: The following floating-point exceptions are signalling: IEEE_UNDERFLOW_FLAG IEEE_DENORMAL
Note: The following floating-point exceptions are signalling: IEEE_UNDERFLOW_FLAG IEEE_DENORMAL
Note: The following floating-point exceptions are signalling: IEEE_UNDERFLOW_FLAG IEEE_DENORMAL
Note: The following floating-point exceptions are signalling: IEEE_UNDERFLOW_FLAG IEEE_DENORMAL
Note: The following floating-point exceptions are signalling: IEEE_UNDERFLOW_FLAG IEEE_DENORMAL
Note: The following floating-point exceptions are signalling: IEEE_UNDERFLOW_FLAG IEEE_DENORMAL
Note: The following floating-point exceptions are signalling: IEEE_UNDERFLOW_FLAG IEEE_DENORMAL
Note: The following floating-point exceptions are signalling: IEEE_UNDERFLOW_FLAG IEEE_DENORMAL
Note: The following floating-point exceptions are signalling: IEEE_UNDERFLOW_FLAG IEEE_DENORMAL
Note: The following floating-point exceptions are signalling: IEEE_UNDERFLOW_FLAG IEEE_DENORMAL
Note: The following floating-point exceptions are signalling: IEEE_UNDERFLOW_FLAG IEEE_DENORMAL
Note: The following floating-point exceptions are signalling: IEEE_UNDERFLOW_FLAG IEEE_DENORMAL
Note: The following floating-point exceptions are signalling: IEEE_UNDERFLOW_FLAG IEEE_DENORMAL
Note: The following floating-point exceptions are signalling: IEEE_UNDERFLOW_FLAG IEEE_DENORMAL
Note: The following floating-point exceptions are signalling: IEEE_UNDERFLOW_FLAG IEEE_DENORMAL
Note: The following floating-point exceptions are signalling: IEEE_UNDERFLOW_FLAG IEEE_DENORMAL
Note: The following floating-point exceptions are signalling: IEEE_UNDERFLOW_FLAG IEEE_DENORMAL
Note: The following floating-point exceptions are signalling: IEEE_UNDERFLOW_FLAG IEEE_DENORMAL
Note: The following floating-point exceptions are signalling: IEEE_UNDERFLOW_FLAG IEEE_DENORMAL
Note: The following floating-point exceptions are signalling: IEEE_UNDERFLOW_FLAG IEEE_DENORMAL
Note: The following floating-point exceptions are signalling: IEEE_UNDERFLOW_FLAG IEEE_DENORMAL
Note: The following floating-point exceptions are signalling: IEEE_UNDERFLOW_FLAG IEEE_DENORMAL
Note: The following floating-point exceptions are signalling: IEEE_UNDERFLOW_FLAG IEEE_DENORMAL
Note: The following floating-point exceptions are signalling: IEEE_UNDERFLOW_FLAG IEEE_DENORMAL
Note: The following floating-point exceptions are signalling: IEEE_UNDERFLOW_FLAG IEEE_DENORMAL
Note: The following floating-point exceptions are signalling: IEEE_UNDERFLOW_FLAG IEEE_DENORMAL
Note: The following floating-point exceptions are signalling: IEEE_UNDERFLOW_FLAG IEEE_DENORMAL
Note: The following floating-point exceptions are signalling: IEEE_UNDERFLOW_FLAG IEEE_DENORMAL
Note: The following floating-point exceptions are signalling: IEEE_UNDERFLOW_FLAG IEEE_DENORMAL
Note: The following floating-point exceptions are signalling: IEEE_UNDERFLOW_FLAG IEEE_DENORMAL
Note: The following floating-point exceptions are signalling: IEEE_UNDERFLOW_FLAG IEEE_DENORMAL
Note: The following floating-point exceptions are signalling: IEEE_UNDERFLOW_FLAG IEEE_DENORMAL
Note: The following floating-point exceptions are signalling: IEEE_UNDERFLOW_FLAG IEEE_DENORMAL
Note: The following floating-point exceptions are signalling: IEEE_UNDERFLOW_FLAG IEEE_DENORMAL
Note: The following floating-point exceptions are signalling: IEEE_UNDERFLOW_FLAG IEEE_DENORMAL
Note: The following floating-point exceptions are signalling: IEEE_UNDERFLOW_FLAG IEEE_DENORMAL
Note: The following floating-point exceptions are signalling: IEEE_UNDERFLOW_FLAG IEEE_DENORMAL
Note: The following floating-point exceptions are signalling: IEEE_UNDERFLOW_FLAG IEEE_DENORMAL
Note: The following floating-point exceptions are signalling: IEEE_UNDERFLOW_FLAG IEEE_DENORMAL
Note: The following floating-point exceptions are signalling: IEEE_UNDERFLOW_FLAG IEEE_DENORMAL
Note: The following floating-point exceptions are signalling: IEEE_UNDERFLOW_FLAG IEEE_DENORMAL
Note: The following floating-point exceptions are signalling: IEEE_UNDERFLOW_FLAG IEEE_DENORMAL
Note: The following floating-point exceptions are signalling: IEEE_UNDERFLOW_FLAG IEEE_DENORMAL
Note: The following floating-point exceptions are signalling: IEEE_UNDERFLOW_FLAG IEEE_DENORMAL
Note: The following floating-point exceptions are signalling: IEEE_UNDERFLOW_FLAG IEEE_DENORMAL
Note: The following floating-point exceptions are signalling: IEEE_UNDERFLOW_FLAG IEEE_DENORMAL
Note: The following floating-point exceptions are signalling: IEEE_UNDERFLOW_FLAG IEEE_DENORMAL
Note: The following floating-point exceptions are signalling: IEEE_UNDERFLOW_FLAG IEEE_DENORMAL
Note: The following floating-point exceptions are signalling: IEEE_UNDERFLOW_FLAG IEEE_DENORMAL
Note: The following floating-point exceptions are signalling: IEEE_UNDERFLOW_FLAG IEEE_DENORMAL
Note: The following floating-point exceptions are signalling: IEEE_UNDERFLOW_FLAG IEEE_DENORMAL
Note: The following floating-point exceptions are signalling: IEEE_UNDERFLOW_FLAG IEEE_DENORMAL
Note: The following floating-point exceptions are signalling: IEEE_UNDERFLOW_FLAG IEEE_DENORMAL
Note: The following floating-point exceptions are signalling: IEEE_UNDERFLOW_FLAG IEEE_DENORMAL
Note: The following floating-point exceptions are signalling: IEEE_UNDERFLOW_FLAG IEEE_DENORMAL
Note: The following floating-point exceptions are signalling: IEEE_UNDERFLOW_FLAG IEEE_DENORMAL
Note: The following floating-point exceptions are signalling: IEEE_UNDERFLOW_FLAG IEEE_DENORMAL
Note: The following floating-point exceptions are signalling: IEEE_UNDERFLOW_FLAG IEEE_DENORMAL
Note: The following floating-point exceptions are signalling: IEEE_UNDERFLOW_FLAG IEEE_DENORMAL
Note: The following floating-point exceptions are signalling: IEEE_UNDERFLOW_FLAG IEEE_DENORMAL
Note: The following floating-point exceptions are signalling: IEEE_UNDERFLOW_FLAG IEEE_DENORMAL
Note: The following floating-point exceptions are signalling: IEEE_UNDERFLOW_FLAG IEEE_DENORMAL
Note: The following floating-point exceptions are signalling: IEEE_UNDERFLOW_FLAG IEEE_DENORMAL
Note: The following floating-point exceptions are signalling: IEEE_UNDERFLOW_FLAG IEEE_DENORMAL
Note: The following floating-point exceptions are signalling: IEEE_UNDERFLOW_FLAG IEEE_DENORMAL
Note: The following floating-point exceptions are signalling: IEEE_UNDERFLOW_FLAG IEEE_DENORMAL
Note: The following floating-point exceptions are signalling: IEEE_UNDERFLOW_FLAG IEEE_DENORMAL
Note: The following floating-point exceptions are signalling: IEEE_UNDERFLOW_FLAG IEEE_DENORMAL
Note: The following floating-point exceptions are signalling: IEEE_UNDERFLOW_FLAG IEEE_DENORMAL
Note: The following floating-point exceptions are signalling: IEEE_UNDERFLOW_FLAG IEEE_DENORMAL
Note: The following floating-point exceptions are signalling: IEEE_UNDERFLOW_FLAG IEEE_DENORMAL
Note: The following floating-point exceptions are signalling: IEEE_UNDERFLOW_FLAG IEEE_DENORMAL
Note: The following floating-point exceptions are signalling: IEEE_UNDERFLOW_FLAG IEEE_DENORMAL
Note: The following floating-point exceptions are signalling: IEEE_UNDERFLOW_FLAG IEEE_DENORMAL
Note: The following floating-point exceptions are signalling: IEEE_UNDERFLOW_FLAG IEEE_DENORMAL
Note: The following floating-point exceptions are signalling: IEEE_UNDERFLOW_FLAG IEEE_DENORMAL
Note: The following floating-point exceptions are signalling: IEEE_UNDERFLOW_FLAG IEEE_DENORMAL
Note: The following floating-point exceptions are signalling: IEEE_UNDERFLOW_FLAG IEEE_DENORMAL
Note: The following floating-point exceptions are signalling: IEEE_UNDERFLOW_FLAG IEEE_DENORMAL
Note: The following floating-point exceptions are signalling: IEEE_UNDERFLOW_FLAG IEEE_DENORMAL
Note: The following floating-point exceptions are signalling: IEEE_UNDERFLOW_FLAG IEEE_DENORMAL
Note: The following floating-point exceptions are signalling: IEEE_UNDERFLOW_FLAG IEEE_DENORMAL
Note: The following floating-point exceptions are signalling: IEEE_UNDERFLOW_FLAG IEEE_DENORMAL
Note: The following floating-point exceptions are signalling: IEEE_UNDERFLOW_FLAG IEEE_DENORMAL
Note: The following floating-point exceptions are signalling: IEEE_UNDERFLOW_FLAG IEEE_DENORMAL
Note: The following floating-point exceptions are signalling: IEEE_UNDERFLOW_FLAG IEEE_DENORMAL
Note: The following floating-point exceptions are signalling: IEEE_UNDERFLOW_FLAG IEEE_DENORMAL
Note: The following floating-point exceptions are signalling: IEEE_UNDERFLOW_FLAG IEEE_DENORMAL
Note: The following floating-point exceptions are signalling: IEEE_UNDERFLOW_FLAG IEEE_DENORMAL
Note: The following floating-point exceptions are signalling: IEEE_UNDERFLOW_FLAG IEEE_DENORMAL
Note: The following floating-point exceptions are signalling: IEEE_UNDERFLOW_FLAG IEEE_DENORMAL
Note: The following floating-point exceptions are signalling: IEEE_UNDERFLOW_FLAG IEEE_DENORMAL
Note: The following floating-point exceptions are signalling: IEEE_UNDERFLOW_FLAG IEEE_DENORMAL
Note: The following floating-point exceptions are signalling: IEEE_UNDERFLOW_FLAG IEEE_DENORMAL
Note: The following floating-point exceptions are signalling: IEEE_UNDERFLOW_FLAG IEEE_DENORMAL
Note: The following floating-point exceptions are signalling: IEEE_UNDERFLOW_FLAG IEEE_DENORMAL
Note: The following floating-point exceptions are signalling: IEEE_UNDERFLOW_FLAG IEEE_DENORMAL
Note: The following floating-point exceptions are signalling: IEEE_UNDERFLOW_FLAG IEEE_DENORMAL
Note: The following floating-point exceptions are signalling: IEEE_UNDERFLOW_FLAG IEEE_DENORMAL
Note: The following floating-point exceptions are signalling: IEEE_UNDERFLOW_FLAG IEEE_DENORMAL
Note: The following floating-point exceptions are signalling: IEEE_UNDERFLOW_FLAG IEEE_DENORMAL
Note: The following floating-point exceptions are signalling: IEEE_UNDERFLOW_FLAG IEEE_DENORMAL
Note: The following floating-point exceptions are signalling: IEEE_UNDERFLOW_FLAG IEEE_DENORMAL
Note: The following floating-point exceptions are signalling: IEEE_UNDERFLOW_FLAG IEEE_DENORMAL
Note: The following floating-point exceptions are signalling: IEEE_UNDERFLOW_FLAG IEEE_DENORMAL
Note: The following floating-point exceptions are signalling: IEEE_UNDERFLOW_FLAG IEEE_DENORMAL
Note: The following floating-point exceptions are signalling: IEEE_UNDERFLOW_FLAG IEEE_DENORMAL
Note: The following floating-point exceptions are signalling: IEEE_UNDERFLOW_FLAG IEEE_DENORMAL
Note: The following floating-point exceptions are signalling: IEEE_UNDERFLOW_FLAG IEEE_DENORMAL
Note: The following floating-point exceptions are signalling: IEEE_UNDERFLOW_FLAG IEEE_DENORMAL
Note: The following floating-point exceptions are signalling: IEEE_UNDERFLOW_FLAG IEEE_DENORMAL
Note: The following floating-point exceptions are signalling: IEEE_UNDERFLOW_FLAG IEEE_DENORMAL
Note: The following floating-point exceptions are signalling: IEEE_UNDERFLOW_FLAG IEEE_DENORMAL
Note: The following floating-point exceptions are signalling: IEEE_UNDERFLOW_FLAG IEEE_DENORMAL
Note: The following floating-point exceptions are signalling: IEEE_UNDERFLOW_FLAG IEEE_DENORMAL
Note: The following floating-point exceptions are signalling: IEEE_UNDERFLOW_FLAG IEEE_DENORMAL
Note: The following floating-point exceptions are signalling: IEEE_UNDERFLOW_FLAG IEEE_DENORMAL
Note: The following floating-point exceptions are signalling: IEEE_UNDERFLOW_FLAG IEEE_DENORMAL
Note: The following floating-point exceptions are signalling: IEEE_UNDERFLOW_FLAG IEEE_DENORMAL
Note: The following floating-point exceptions are signalling: IEEE_UNDERFLOW_FLAG IEEE_DENORMAL
Note: The following floating-point exceptions are signalling: IEEE_UNDERFLOW_FLAG IEEE_DENORMAL
Note: The following floating-point exceptions are signalling: IEEE_UNDERFLOW_FLAG IEEE_DENORMAL
Note: The following floating-point exceptions are signalling: IEEE_UNDERFLOW_FLAG IEEE_DENORMAL
end_date Tue Nov  1 22:51:36 GMT 2022
 
TEMPORARY          SAVED (in /mnt/lustre/a2fs-work2/work/e05/e05/bcamino/quantum_computing/test_model/optgeom)
fort.34            graphene_3v_N.gui 1492     Nov 1 22:51
fort.33            graphene_3v_N.xyz 54353    Nov 1 22:51
fort.9             graphene_3v_N.f9  1543760  Nov 1 22:51
fort.98            graphene_3v_N.f98 4017662  Nov 1 22:51
SCFOUT.LOG         graphene_3v_N.SCFLOG1127672  Nov 1 22:51
OPTINFO.DAT        graphene_3v_N.OPTINFO11906031 Nov 1 22:51
HESSOPT.DAT        graphene_3v_N.HESSOPT37485    Nov 1 22:51
opta001            opta002            
Disk usage:<du -m>
524	/mnt/lustre/a2fs-work2/work/e05/e05/bcamino/quantum_computing/test_model/optgeom/tmp_graphene_3v_N_
</du -m>
Filesystem                                          1K-blocks          Used     Available Use% Mounted on
10.253.102.2@o2ib1:10.253.102.3@o2ib1:/cls01097 3582178503216 1748016341676 1797944743880  50% /mnt/lustre/a2fs-work2
10.253.102.2@o2ib1:10.253.102.3@o2ib1:/cls01097 3582178503216 1748016341676 1797944743880  50% /mnt/lustre/a2fs-work2
