date:                Tue Nov  1 21:56:41 GMT 2022
hostname:            nid005097
system:              Linux nid005097 4.12.14-197.78_9.1.64-cray_shasta_c #1 SMP Wed Aug 25 14:56:40 UTC 2021 (4e2a900) x86_64 x86_64 x86_64 GNU/Linux
user:                bcamino
input:               /mnt/lustre/a2fs-work2/work/e05/e05/bcamino/quantum_computing/test_model/optgeom/graphene_3v_H.d12
output:              /mnt/lustre/a2fs-work2/work/e05/e05/bcamino/quantum_computing/test_model/optgeom/graphene_3v_H.out
executable script:   /work/e05/e05/bcamino/runCRYSTAL/Pcry_slurm
executable:          Pcrystal
Command:             srun --hint=nomultithread --distribution=block:block Pcrystal
Slurm JobID:         
temporary directory: /mnt/lustre/a2fs-work2/work/e05/e05/bcamino/quantum_computing/test_model/optgeom/tmp_graphene_3v_H_      
input data /mnt/lustre/a2fs-work2/work/e05/e05/bcamino/quantum_computing/test_model/optgeom/graphene_3v_H.d12
Final
EXTERNAL
SYMMREMO
OPTGEOM
ATOMONLY
MAXTRADIUS
0.2
TRUSTRADIUS
0.25
MAXCYCLE
500
END
END
6 8
0 0 6 2.0 1.0
  13575.349682      0.00022245814352
  2035.2333680      0.00172327382520
  463.22562359      0.00892557153140
  131.20019598      0.03572798450200
  42.853015891      0.11076259931000
  15.584185766      0.24295627626000
0 0 2 2.0 1.0
  6.2067138508      0.41440263448000
  2.5764896527      0.23744968655000
0 0 1 0.0 1.0
  0.4941102000      1.00000000000000
0 0 1 0.0 1.0
  0.1644071000      1.00000000000000
0 2 4 2.0 1.0
  34.697232244      0.00533336578050
  7.9582622826      0.03586410909200
  2.3780826883      0.14215873329000
  0.8143320818      0.34270471845000
0 2 1 0.0 1.0
  0.5662417100      1.00000000000000
0 2 1 0.0 1.0
  0.1973545000      1.00000000000000
0 3 1 0.0 1.0
  0.5791584200      1.00000000000000
99 0
ENDBS
DFT
PBE  
ENDDFT
TOLINTEG
8 8 8 8 16
SCFDIR
SHRINK
8 16  
MAXCYCLE
200
TOLDEE
9 
ENDSCF
input data /mnt/lustre/a2fs-work2/work/e05/e05/bcamino/quantum_computing/test_model/optgeom/graphene_3v_H.gui
         128 PROCESSORS WORKING

         
 *******************************************************************************
 *                                                                             *
 *                               CRYSTAL17                                     *
 *                      public : 1.0.2 - March 1st, 2018 STFC/Archer2 build    *
 *                       HTTP://WWW.CRYSTAL.UNITO.IT                           *
 *                                                                             *
 *                              MAIN AUTHORS                                   *
 *                                                                             *
 *  R. DOVESI(1,11), V.R. SAUNDERS(2), C. ROETTI(1,11), R. ORLANDO(1,11),      *
 *  C.M. ZICOVICH-WILSON(1,3), F. PASCALE(4), B. CIVALLERI(1,11),              *
 *  K. DOLL(5), N.M. HARRISON(2,6), I.J. BUSH(7), Ph. D'ARCO(8),               *
 *  M. LLUNELL(9), M. CAUSA'(10), Y. NOEL(8), L. MASCHIO(1,11), A. ERBA(1,11)  *
 *  M. RE'RAT(14), S. CASASSA(1,11)                                            *
 *                                                                             *
 *        CONTRIBUTIONS TO THE CODE HAVE ALSO BEEN GIVEN BY                    *
 *                                                                             *
 *  M. FERRABONE(1,11), M. DE LA PIERRE(1,11), M. FERRERO(1,11),               *
 *  J. BAIMA(1,11), E. ALBANESE(1,11), M.F. PEINTINGER(12), R. BAST(13),       *
 *  B. KIRTMAN(15), V. LACIVITA(1,11), R. DEMICHELIS(1,16)                     *
 *  G. BRANDEBURG(17), S. SALUSTRO(1,11), G. SANSONE(1,11)                     *
 *  M.T. RUGGIERO(18)                                                          *
 *                                                                             *
 * (1) THEORETICAL CHEMISTRY GROUP - UNIVERSITA' DI TORINO - TORINO (ITALY)    *
 * (2) COMPUTATIONAL SCIENCE & ENGINEERING DEPARTMENT - STFC DARESBURY (UK)    *
 * (3) UNIVERSIDAD AUTONOMA DEL ESTADO DE MORELOS - CUERNAVACA (MEXICO)        *
 * (4) UNIVERSITE' DE LORRAINE - NANCY (FRANCE)                                *
 * (5) UNIVERSITAET STUTTGART- STUTTGART (GERMANY)                             *
 * (6) IMPERIAL COLLEGE - LONDON (UK)                                          *
 * (7) OXFORD E-RESEARCH CENTRE - OXFORD (UK)                                  *
 * (8) UPMC - SORBONNE UNIVERSITES - PARIS (FRANCE)                            *
 * (9) UNIVERSIDAD DE BARCELONA - BARCELONA (SPAIN)                            *
 *(10) UNIVERSITA' DI NAPOLI "FEDERICO II" - NAPOLI (ITALY)                    *
 *(11) NIS - NANOSTRUCTURED INTERFACES AND SURFACES - TORINO (ITALY)           *
 *(12) MPI FUER CHEMISCHE ENERGIEKONVERSION - MUELHEIM AN DER RUHR (GERMANY)   *
 *(13) UNIVERSITY OF TROMSO - TROMSO (NORWAY)                                  *
 *(14) UNIVERSITE' DE PAU ET DES PAYS DE L'ADOUR - PAU (FRANCE)                *
 *(15) UNIVERSITY OF CALIFORNIA SANTA BARBARA - SANTA BARBARA (USA)            *
 *(16) CURTIN UNIVERSITY - PERTH (AUSTRALIA)                                   *
 *(17) UNIVERSITY COLLEGE LONDON - LONDON (UK)                                 *
 *(18) CAMBRIDGE UNIVERSITY - CAMBRIDGE (UK)                                   *
 *                                                                             *
 *******************************************************************************
 EEEEEEEEEE STARTING  DATE 01 11 2022 TIME 21:56:45.5
 Final                                                                           

 GEOMETRY INPUT FROM EXTERNAL FILE (FORTRAN UNIT 34)
 3D - CRYSTAL 

 *******************************************************************************
 LATTICE PARAMETERS  (ANGSTROMS AND DEGREES) - PRIMITIVE CELL
       A          B          C        ALPHA      BETA     GAMMA        VOLUME
    7.40317    7.40317    8.68504    90.00000  90.00000 120.00000    412.228566
 INFORMATION **** CHKGRP **** SPGR WITH NO INVERSION

 NUMBER OF IRREDUCIBLE ATOMS IN THE CELL:   15

 CARTESIAN COORDINATES (ANGSTROM) - IRREDUCIBLE ATOMS AND SYMMETRY RELATED

 AT.IRR.  AT  AT.N.          X                   Y                   Z
     1     1     6    3.701586212049E+00  4.986594190562E+00  2.605511400000E+00
     2     2     6    2.467724141366E+00 -1.424741197304E+00  2.605511400000E+00
     3     3     6    3.701586212049E+00  7.123705986520E-01  2.605511400000E+00
     4     4     6    4.935448282733E+00  2.849482394607E+00  2.605511400000E+00
     5     5     6    3.701586212049E+00 -3.561852993259E+00  2.605511400000E+00
     6     6     6    6.169310353416E+00  7.123705986520E-01  2.605511400000E+00
     7     7     6    1.233862070683E+00 -7.123705986520E-01  2.605511400000E+00
     8     8     6    2.467724141366E+00  1.424741197304E+00  2.605511400000E+00
     9     9     6    3.701586212049E+00  3.561852993259E+00  2.605511400000E+00
    10    10     6    2.467724141366E+00 -2.849482394607E+00  2.605511400000E+00
    11    11     6    3.701586212049E+00 -7.123705986520E-01  2.605511400000E+00
    12    12     6    4.935448282733E+00  1.424741197304E+00  2.605511400000E+00
    13    13     6    3.701586212049E+00 -4.986594190562E+00  2.605511400000E+00
    14    14     6    4.935448282733E+00 -2.849482394607E+00  2.605511400000E+00
    15    15     6    6.169310353416E+00 -7.123705986520E-01  2.605511400000E+00

 SPACE  GROUP  N.                     :    1
 NUMBER OF SYMMETRY OPERATORS         :    1
 *******************************************************************************
 LATTICE PARAMETERS (ANGSTROMS AND DEGREES) - BOHR = 0.5291772083 ANGSTROM
 PRIMITIVE CELL - CENTRING CODE 1/0 VOLUME=   412.228566 - DENSITY  0.725 g/cm^3
         A              B              C           ALPHA      BETA       GAMMA 
     7.40317242     7.40317242     8.68503800    90.000000  90.000000 120.000000
 *******************************************************************************
 ATOMS IN THE ASYMMETRIC UNIT   15 - ATOMS IN THE UNIT CELL:   15
     ATOM                 X/A                 Y/B                 Z/C    
 *******************************************************************************
      1 T   6 C     1.111111111111E-01 -1.111111111111E-01  3.000000000000E-01
      2 T   6 C     4.444444444445E-01  2.222222222222E-01  3.000000000000E-01
      3 T   6 C     4.444444444444E-01 -4.444444444444E-01  3.000000000000E-01
      4 T   6 C     4.444444444446E-01 -1.111111111110E-01  3.000000000000E-01
      5 T   6 C    -2.222222222222E-01  2.222222222222E-01  3.000000000000E-01
      6 T   6 C    -2.222222222221E-01 -1.111111111110E-01  3.000000000000E-01
      7 T   6 C     2.222222222222E-01  1.111111111111E-01  3.000000000000E-01
      8 T   6 C     2.222222222222E-01  4.444444444445E-01  3.000000000000E-01
      9 T   6 C     2.222222222222E-01 -2.222222222222E-01  3.000000000000E-01
     10 T   6 C    -4.444444444445E-01  1.111111111111E-01  3.000000000000E-01
     11 T   6 C    -4.444444444444E-01  4.444444444444E-01  3.000000000000E-01
     12 T   6 C    -4.444444444443E-01 -2.222222222221E-01  3.000000000000E-01
     13 T   6 C    -1.111111111111E-01  1.111111111111E-01  3.000000000000E-01
     14 T   6 C    -1.111111111110E-01  4.444444444446E-01  3.000000000000E-01
     15 T   6 C    -1.111111111110E-01 -2.222222222221E-01  3.000000000000E-01

 T = ATOM BELONGING TO THE ASYMMETRIC UNIT
 *******************************************************************************
 * GEOMETRY EDITING - INPUT COORDINATES ARE GIVEN IN ANGSTROM         
 *******************************************************************************

 USE OF SYMMETRY WILL BE SUBSEQUENTLY SUSPENDED
 INFORMATION **** NEW DEFAULT **** FINALRUN 4 FOR GEOMETRY OPTIMIZATIONS
 INFORMATION **** NEW DEFAULT **** OPTGEOM OPTIMIZES BOTH ATOMIC COORDINATES AND CELL PARAMETERS
 INFORMATION **** NEW DEFAULT **** TOL. ON ATOMIC DISP TO REDEFINE REF. GEOMETRY: 0.8 Angs
 INFORMATION **** NEW DEFAULT **** N POINTS TO REDEFINE REF. GEOMETRY: N OF OPT DEGS OF FREEDOM
 INFORMATION **** NEW DEFAULT **** TOL. ON ENERGY TO REDEFINE REF. GEOMETRY: 10**-3*(5*N. ATOMS)
 INFORMATION **** ATOMONLY **** ONLY ATOMIC COORDINATES ARE OPTIMIZED
 INFORMATION **** MAXTRADIUS **** MAX ALLOWED TRUST RADIUS  2.000000E-01
 INFORMATION **** TRUSTRADIUS ****  INITIAL VALUE FOR TRUST RADIUS MODIFIED  2.500000E-01
 INFORMATION **** MAXCYCLE ****   MAXIMUM NUMBER OF OPTIMIZATION CYCLES         500

 IMPORTANT INFORMATION:
 THE COORDINATE SYSTEM ADOPTED IN THE OPTIMIZATION IS NOT IN
 GENERAL HOMOGENEOUS UNITS. FOR THIS REASON THE GRADIENT AND 
 HESSIAN MATRIX IN TERMS OF THIS SYSTEM ARE GIVEN WITHOUT
 UNITS. FOR MORE DETAILS SEE THE MANUAL.

 *******************************************************************************
 ATOMIC POSITIONS OPTIMIZATION CONTROL

 INITIAL TRUST RADIUS         0.25000 MAXIMUM TRUST RADIUS               0.20000
 MAXIMUM GRADIENT COMPONENT   0.00045 MAXIMUM DISPLACEMENT COMPONENT     0.00180
 R.M.S. OF GRADIENT COMPONENT 0.00030 R.M.S. OF DISPLACEMENT COMPONENTS  0.00120
 THRESHOLD ON ENERGY CHANGE 0.100E-06 EXTRAPOLATING POLYNOMIAL ORDER           2
 MAXIMUM ALLOWED NUMBER OF STEPS  500 SORTING OF ENERGY POINTS:               NO
 ANALYTICAL  GRADIENT                 HESSIAN UPDATING                      BFGS
 STEP SIZE NUMERICAL GRADIENT 0.00100
 INITIAL HESSIAN MATRIX: SCHLEGEL MODEL 2
 *******************************************************************************


 GCALCO - MAX INDICES DIRECT LATTICE VECTOR    16    16    12
 NO.OF VECTORS CREATED 6999 STARS  379 RMAX   166.99060 BOHR

 GEOMETRY FOR WAVE FUNCTION - DIMENSIONALITY OF THE SYSTEM    3
 (NON PERIODIC DIRECTION: LATTICE PARAMETER FORMALLY SET TO 500)
 *******************************************************************************
 LATTICE PARAMETERS (ANGSTROMS AND DEGREES) - BOHR = 0.5291772083 ANGSTROM
 PRIMITIVE CELL - CENTRING CODE 1/0 VOLUME=   412.228566 - DENSITY  0.725 g/cm^3
         A              B              C           ALPHA      BETA       GAMMA 
     7.40317242     7.40317242     8.68503800    90.000000  90.000000 120.000000
 *******************************************************************************
 ATOMS IN THE ASYMMETRIC UNIT   15 - ATOMS IN THE UNIT CELL:   15
     ATOM                 X/A                 Y/B                 Z/C    
 *******************************************************************************
      1 T   6 C     1.111111111111E-01 -1.111111111111E-01  3.000000000000E-01
      2 T   6 C     4.444444444445E-01  2.222222222222E-01  3.000000000000E-01
      3 T   6 C     4.444444444444E-01 -4.444444444444E-01  3.000000000000E-01
      4 T   6 C     4.444444444446E-01 -1.111111111110E-01  3.000000000000E-01
      5 T   6 C    -2.222222222222E-01  2.222222222222E-01  3.000000000000E-01
      6 T   6 C    -2.222222222221E-01 -1.111111111110E-01  3.000000000000E-01
      7 T   6 C     2.222222222222E-01  1.111111111111E-01  3.000000000000E-01
      8 T   6 C     2.222222222222E-01  4.444444444445E-01  3.000000000000E-01
      9 T   6 C     2.222222222222E-01 -2.222222222222E-01  3.000000000000E-01
     10 T   6 C    -4.444444444445E-01  1.111111111111E-01  3.000000000000E-01
     11 T   6 C    -4.444444444444E-01  4.444444444444E-01  3.000000000000E-01
     12 T   6 C    -4.444444444443E-01 -2.222222222221E-01  3.000000000000E-01
     13 T   6 C    -1.111111111111E-01  1.111111111111E-01  3.000000000000E-01
     14 T   6 C    -1.111111111110E-01  4.444444444446E-01  3.000000000000E-01
     15 T   6 C    -1.111111111110E-01 -2.222222222221E-01  3.000000000000E-01

 T = ATOM BELONGING TO THE ASYMMETRIC UNIT

 ****    1 SYMMOPS - TRANSLATORS IN FRACTIONAL UNITS
 **** MATRICES AND TRANSLATORS IN THE CRYSTALLOGRAPHIC REFERENCE FRAME
   V INV                    ROTATION MATRICES                   TRANSLATORS
   1   1  1.00  0.00  0.00  0.00  1.00  0.00  0.00  0.00  1.00  0.00  0.00  0.00

 DIRECT LATTICE VECTORS CARTESIAN COMPONENTS (ANGSTROM)
          X                    Y                    Z
   0.370158621205E+01  -0.641133538787E+01   0.000000000000E+00
   0.370158621205E+01   0.641133538787E+01   0.000000000000E+00
   0.000000000000E+00   0.000000000000E+00   0.868503800000E+01


 CARTESIAN COORDINATES - PRIMITIVE CELL
 *******************************************************************************
 *      ATOM          X(ANGSTROM)         Y(ANGSTROM)         Z(ANGSTROM)
 *******************************************************************************
    1     6 C     3.701586212049E+00  4.986594190562E+00  2.605511400000E+00
    2     6 C     2.467724141366E+00 -1.424741197304E+00  2.605511400000E+00
    3     6 C     3.701586212049E+00  7.123705986520E-01  2.605511400000E+00
    4     6 C     4.935448282733E+00  2.849482394607E+00  2.605511400000E+00
    5     6 C     3.701586212049E+00 -3.561852993259E+00  2.605511400000E+00
    6     6 C     6.169310353416E+00  7.123705986520E-01  2.605511400000E+00
    7     6 C     1.233862070683E+00 -7.123705986520E-01  2.605511400000E+00
    8     6 C     2.467724141366E+00  1.424741197304E+00  2.605511400000E+00
    9     6 C     3.701586212049E+00  3.561852993259E+00  2.605511400000E+00
   10     6 C     2.467724141366E+00 -2.849482394607E+00  2.605511400000E+00
   11     6 C     3.701586212049E+00 -7.123705986520E-01  2.605511400000E+00
   12     6 C     4.935448282733E+00  1.424741197304E+00  2.605511400000E+00
   13     6 C     3.701586212049E+00 -4.986594190562E+00  2.605511400000E+00
   14     6 C     4.935448282733E+00 -2.849482394607E+00  2.605511400000E+00
   15     6 C     6.169310353416E+00 -7.123705986520E-01  2.605511400000E+00

 *******************************************************************************
 LOCAL ATOMIC FUNCTIONS BASIS SET
 *******************************************************************************
   ATOM   X(AU)   Y(AU)   Z(AU)  N. TYPE  EXPONENT  S COEF   P COEF   D/F/G COEF
 *******************************************************************************
   1 C    6.995   9.423   4.924
                                  1 S  
                                         1.358E+04 2.225E-04 0.000E+00 0.000E+00
                                         2.035E+03 1.723E-03 0.000E+00 0.000E+00
                                         4.632E+02 8.926E-03 0.000E+00 0.000E+00
                                         1.312E+02 3.573E-02 0.000E+00 0.000E+00
                                         4.285E+01 1.108E-01 0.000E+00 0.000E+00
                                         1.558E+01 2.430E-01 0.000E+00 0.000E+00
                                  2 S  
                                         6.207E+00 4.144E-01 0.000E+00 0.000E+00
                                         2.576E+00 2.374E-01 0.000E+00 0.000E+00
                                  3 S  
                                         4.941E-01 1.000E+00 0.000E+00 0.000E+00
                                  4 S  
                                         1.644E-01 1.000E+00 0.000E+00 0.000E+00
                           5-     7 P  
                                         3.470E+01 0.000E+00 5.333E-03 0.000E+00
                                         7.958E+00 0.000E+00 3.586E-02 0.000E+00
                                         2.378E+00 0.000E+00 1.422E-01 0.000E+00
                                         8.143E-01 0.000E+00 3.427E-01 0.000E+00
                           8-    10 P  
                                         5.662E-01 0.000E+00 1.000E+00 0.000E+00
                          11-    13 P  
                                         1.974E-01 0.000E+00 1.000E+00 0.000E+00
                          14-    18 D  
                                         5.792E-01 0.000E+00 0.000E+00 1.000E+00
   2 C    4.663  -2.692   4.924
   3 C    6.995   1.346   4.924
   4 C    9.327   5.385   4.924
   5 C    6.995  -6.731   4.924
   6 C   11.658   1.346   4.924
   7 C    2.332  -1.346   4.924
   8 C    4.663   2.692   4.924
   9 C    6.995   6.731   4.924
  10 C    4.663  -5.385   4.924
  11 C    6.995  -1.346   4.924
  12 C    9.327   2.692   4.924
  13 C    6.995  -9.423   4.924
  14 C    9.327  -5.385   4.924
  15 C   11.658  -1.346   4.924
 INFORMATION **** SET_MPP **** PCRYSTAL CALCULATION
 INFORMATION **** READM2 **** NEW DEFAULT: FOCK/KS MATRIX MIXING SET TO 30 %
 INFORMATION **** READM2 **** NEW DEFAULT: FULL DIRECT SCF MODE
 INFORMATION **** READM2 **** NEW DEFAULT: COULOMB BIPOLAR BUFFER SET TO 32 Mb
 INFORMATION **** READM2 **** NEW DEFAULT: EXCHANGE BIPOLAR BUFFER SET TO 32 Mb

 *******************************************************************************
 NEW DEFAULT: DFT INTEGRATION GRID INCREASED TO XLGRID
 NEW DEFAULT: DIIS ACCELERATOR ACTIVE
 USE KEYWORD NODIIS TO TURN IT OFF
 *******************************************************************************

 INFORMATION **** TOLINTEG **** COULOMB AND EXCHANGE SERIES TOLERANCES MODIFIED
 INFORMATION **** READM2 **** FULL DIRECT SCF (MONO AND BIEL INT) SELECTED
 INFORMATION **** MAXCYCLE **** MAX NUMBER OF SCF CYCLES SET TO         200
 INFORMATION **** TOLDEE **** SCF TOL ON TOTAL ENERGY SET TO           9
 *******************************************************************************
 N. OF ATOMS PER CELL        15  COULOMB OVERLAP TOL         (T1) 10**   -8
 NUMBER OF SHELLS           120  COULOMB PENETRATION TOL     (T2) 10**   -8
 NUMBER OF AO               270  EXCHANGE OVERLAP TOL        (T3) 10**   20
 N. OF ELECTRONS PER CELL    90  EXCHANGE PSEUDO OVP (F(G))  (T4) 10**   20
 CORE ELECTRONS PER CELL     30  EXCHANGE PSEUDO OVP (P(G))  (T5) 10**   20
 N. OF SYMMETRY OPERATORS     1  POLE ORDER IN MONO ZONE                  4
 *******************************************************************************
 TYPE OF CALCULATION :  RESTRICTED CLOSED SHELL
 KOHN-SHAM HAMILTONIAN

 (EXCHANGE)[CORRELATION] FUNCTIONAL:(PERDEW-BURKE-ERNZERHOF)[PERDEW-BURKE-ERNZERHOF]


 CAPPA:IS1  8;IS2  8;IS3  8; K PTS MONK NET 260; SYMMOPS:K SPACE   2;G SPACE   1

 *******************************************************************************
 MAX NUMBER OF SCF CYCLES     200  CONVERGENCE ON DELTAP        10**-19
 WEIGHT OF F(I) IN F(I+1)      30% CONVERGENCE ON ENERGY        10**- 9
 SHRINK. FACT.(MONKH.)    8  8  8  NUMBER OF K POINTS IN THE IBZ    260
 SHRINKING FACTOR(GILAT NET)   16  NUMBER OF K POINTS(GILAT NET)   2052
 *******************************************************************************
 *** K POINTS COORDINATES (OBLIQUE COORDINATES IN UNITS OF IS =  8)
   1-R(  0  0  0)   2-C(  1  0  0)   3-C(  2  0  0)   4-C(  3  0  0)
   5-R(  4  0  0)   6-C(  0  1  0)   7-C(  1  1  0)   8-C(  2  1  0)
   9-C(  3  1  0)  10-C(  4  1  0)  11-C(  5  1  0)  12-C(  6  1  0)
  13-C(  7  1  0)  14-C(  0  2  0)  15-C(  1  2  0)  16-C(  2  2  0)
  17-C(  3  2  0)  18-C(  4  2  0)  19-C(  5  2  0)  20-C(  6  2  0)
  21-C(  7  2  0)  22-C(  0  3  0)  23-C(  1  3  0)  24-C(  2  3  0)
  25-C(  3  3  0)  26-C(  4  3  0)  27-C(  5  3  0)  28-C(  6  3  0)
  29-C(  7  3  0)  30-R(  0  4  0)  31-C(  1  4  0)  32-C(  2  4  0)
  33-C(  3  4  0)  34-R(  4  4  0)  35-C(  0  0  1)  36-C(  1  0  1)
  37-C(  2  0  1)  38-C(  3  0  1)  39-C(  4  0  1)  40-C(  5  0  1)
  41-C(  6  0  1)  42-C(  7  0  1)  43-C(  0  1  1)  44-C(  1  1  1)
  45-C(  2  1  1)  46-C(  3  1  1)  47-C(  4  1  1)  48-C(  5  1  1)
  49-C(  6  1  1)  50-C(  7  1  1)  51-C(  0  2  1)  52-C(  1  2  1)
  53-C(  2  2  1)  54-C(  3  2  1)  55-C(  4  2  1)  56-C(  5  2  1)
  57-C(  6  2  1)  58-C(  7  2  1)  59-C(  0  3  1)  60-C(  1  3  1)
  61-C(  2  3  1)  62-C(  3  3  1)  63-C(  4  3  1)  64-C(  5  3  1)
  65-C(  6  3  1)  66-C(  7  3  1)  67-C(  0  4  1)  68-C(  1  4  1)
  69-C(  2  4  1)  70-C(  3  4  1)  71-C(  4  4  1)  72-C(  5  4  1)
  73-C(  6  4  1)  74-C(  7  4  1)  75-C(  0  5  1)  76-C(  1  5  1)
  77-C(  2  5  1)  78-C(  3  5  1)  79-C(  4  5  1)  80-C(  5  5  1)
  81-C(  6  5  1)  82-C(  7  5  1)  83-C(  0  6  1)  84-C(  1  6  1)
  85-C(  2  6  1)  86-C(  3  6  1)  87-C(  4  6  1)  88-C(  5  6  1)
  89-C(  6  6  1)  90-C(  7  6  1)  91-C(  0  7  1)  92-C(  1  7  1)
  93-C(  2  7  1)  94-C(  3  7  1)  95-C(  4  7  1)  96-C(  5  7  1)
  97-C(  6  7  1)  98-C(  7  7  1)  99-C(  0  0  2) 100-C(  1  0  2)
 101-C(  2  0  2) 102-C(  3  0  2) 103-C(  4  0  2) 104-C(  5  0  2)
 105-C(  6  0  2) 106-C(  7  0  2) 107-C(  0  1  2) 108-C(  1  1  2)
 109-C(  2  1  2) 110-C(  3  1  2) 111-C(  4  1  2) 112-C(  5  1  2)
 113-C(  6  1  2) 114-C(  7  1  2) 115-C(  0  2  2) 116-C(  1  2  2)
 117-C(  2  2  2) 118-C(  3  2  2) 119-C(  4  2  2) 120-C(  5  2  2)
 121-C(  6  2  2) 122-C(  7  2  2) 123-C(  0  3  2) 124-C(  1  3  2)
 125-C(  2  3  2) 126-C(  3  3  2) 127-C(  4  3  2) 128-C(  5  3  2)
 129-C(  6  3  2) 130-C(  7  3  2) 131-C(  0  4  2) 132-C(  1  4  2)
 133-C(  2  4  2) 134-C(  3  4  2) 135-C(  4  4  2) 136-C(  5  4  2)
 137-C(  6  4  2) 138-C(  7  4  2) 139-C(  0  5  2) 140-C(  1  5  2)
 141-C(  2  5  2) 142-C(  3  5  2) 143-C(  4  5  2) 144-C(  5  5  2)
 145-C(  6  5  2) 146-C(  7  5  2) 147-C(  0  6  2) 148-C(  1  6  2)
 149-C(  2  6  2) 150-C(  3  6  2) 151-C(  4  6  2) 152-C(  5  6  2)
 153-C(  6  6  2) 154-C(  7  6  2) 155-C(  0  7  2) 156-C(  1  7  2)
 157-C(  2  7  2) 158-C(  3  7  2) 159-C(  4  7  2) 160-C(  5  7  2)
 161-C(  6  7  2) 162-C(  7  7  2) 163-C(  0  0  3) 164-C(  1  0  3)
 165-C(  2  0  3) 166-C(  3  0  3) 167-C(  4  0  3) 168-C(  5  0  3)
 169-C(  6  0  3) 170-C(  7  0  3) 171-C(  0  1  3) 172-C(  1  1  3)
 173-C(  2  1  3) 174-C(  3  1  3) 175-C(  4  1  3) 176-C(  5  1  3)
 177-C(  6  1  3) 178-C(  7  1  3) 179-C(  0  2  3) 180-C(  1  2  3)
 181-C(  2  2  3) 182-C(  3  2  3) 183-C(  4  2  3) 184-C(  5  2  3)
 185-C(  6  2  3) 186-C(  7  2  3) 187-C(  0  3  3) 188-C(  1  3  3)
 189-C(  2  3  3) 190-C(  3  3  3) 191-C(  4  3  3) 192-C(  5  3  3)
 193-C(  6  3  3) 194-C(  7  3  3) 195-C(  0  4  3) 196-C(  1  4  3)
 197-C(  2  4  3) 198-C(  3  4  3) 199-C(  4  4  3) 200-C(  5  4  3)
 201-C(  6  4  3) 202-C(  7  4  3) 203-C(  0  5  3) 204-C(  1  5  3)
 205-C(  2  5  3) 206-C(  3  5  3) 207-C(  4  5  3) 208-C(  5  5  3)
 209-C(  6  5  3) 210-C(  7  5  3) 211-C(  0  6  3) 212-C(  1  6  3)
 213-C(  2  6  3) 214-C(  3  6  3) 215-C(  4  6  3) 216-C(  5  6  3)
 217-C(  6  6  3) 218-C(  7  6  3) 219-C(  0  7  3) 220-C(  1  7  3)
 221-C(  2  7  3) 222-C(  3  7  3) 223-C(  4  7  3) 224-C(  5  7  3)
 225-C(  6  7  3) 226-C(  7  7  3) 227-R(  0  0  4) 228-C(  1  0  4)
 229-C(  2  0  4) 230-C(  3  0  4) 231-R(  4  0  4) 232-C(  0  1  4)
 233-C(  1  1  4) 234-C(  2  1  4) 235-C(  3  1  4) 236-C(  4  1  4)
 237-C(  5  1  4) 238-C(  6  1  4) 239-C(  7  1  4) 240-C(  0  2  4)
 241-C(  1  2  4) 242-C(  2  2  4) 243-C(  3  2  4) 244-C(  4  2  4)
 245-C(  5  2  4) 246-C(  6  2  4) 247-C(  7  2  4) 248-C(  0  3  4)
 249-C(  1  3  4) 250-C(  2  3  4) 251-C(  3  3  4) 252-C(  4  3  4)
 253-C(  5  3  4) 254-C(  6  3  4) 255-C(  7  3  4) 256-R(  0  4  4)
 257-C(  1  4  4) 258-C(  2  4  4) 259-C(  3  4  4) 260-R(  4  4  4)

 DIRECT LATTICE VECTORS COMPON. (A.U.)     RECIP. LATTICE VECTORS COMPON. (A.U.) 
        X            Y            Z              X            Y            Z
    6.9949842  -12.1156680    0.0000000      0.4491208   -0.2593000    0.0000000
    6.9949842   12.1156680    0.0000000      0.4491208    0.2593000   -0.0000000
    0.0000000    0.0000000   16.4123433     -0.0000000    0.0000000    0.3828329

 DISK SPACE FOR EIGENVECTORS (FTN 10)    37324800 REALS

 SYMMETRY ADAPTION OF THE BLOCH FUNCTIONS DISABLED
 TTTTTTTTTTTTTTTTTTTTTTTTTTTTTT gordsh1     TELAPSE        2.79 TCPU        1.80

 MATRIX SIZE: P(G)  110388, F(G)   55374, P(G) IRR   55659, F(G) IRR   55659
 MAX G-VECTOR INDEX FOR 1- AND 2-ELECTRON INTEGRALS  27

 TTTTTTTTTTTTTTTTTTTTTTTTTTTTTT INPUT       TELAPSE        2.80 TCPU        1.81

 NEIGHBORS OF THE NON-EQUIVALENT ATOMS

 N = NUMBER OF NEIGHBORS AT DISTANCE R
    ATOM  N     R/ANG      R/AU   NEIGHBORS (ATOM LABELS AND CELL INDICES)
   1 C    3     1.4247     2.6924    7 C    0 1 0    9 C    0 0 0   15 C   -1 0 0
   1 C    3     2.4677     4.6633    2 C    0 1 0    4 C    0 0 0    6 C   -1 0 0
   1 C    3     2.8495     5.3847   10 C    0 1 0   13 C   -1 1 0   14 C   -1 0 0
   1 C    6     3.7695     7.1233    8 C    0 0 0    8 C    0 1 0   11 C   -1 0 0
                                    11 C    0 1 0   12 C    0 0 0   12 C   -1 0 0
   1 C    6     4.2742     8.0771    3 C    0 0 0    3 C   -1 0 0    3 C    0 1 0
                                     5 C   -1 0 0    5 C    0 1 0    5 C   -1 1 0
   1 C    3     4.9354     9.3266    2 C   -1 0 0    4 C   -1 0 0    6 C    0 0 0

   2 C    3     1.4247     2.6924    7 C    0 0 0   10 C    0 0 0   11 C    0 0 0
   2 C    4     2.4677     4.6633    1 C    0-1 0    3 C    0 0 0    4 C    0-1 0
                                     5 C    0 0 0
   2 C    3     2.8495     5.3847    8 C    0 0 0    9 C    0-1 0   14 C    0 0 0
   2 C    6     3.7695     7.1233   12 C    0 0 0   12 C    0-1 0   13 C    0 0 0
                                    13 C   -1 0 0   15 C    0 0 0   15 C   -1-1 0
   2 C    3     4.2742     8.0771    6 C    0 0 0    6 C   -1-1 0    6 C    0-1 0
   2 C    4     4.9354     9.3266    1 C    1 0 0    3 C    0-1 0    4 C    0 0 0
                                     5 C   -1 0 0

   3 C    3     1.4247     2.6924    8 C    0 0 0   11 C    0 0 0   12 C    0 0 0
   3 C    3     2.4677     4.6633    2 C    0 0 0    4 C    0 0 0    6 C    0 0 0
   3 C    3     2.8495     5.3847    7 C    0 0 0    9 C    0 0 0   15 C    0 0 0
   3 C    6     3.7695     7.1233   10 C    0 0 0   10 C    0 1 0   13 C   -1 0 0
                                    13 C    0 1 0   14 C    0 0 0   14 C   -1 0 0
   3 C    6     4.2742     8.0771    1 C    0 0 0    1 C    1 0 0    1 C    0-1 0
                                     5 C    0 0 0    5 C   -1 0 0    5 C    0 1 0
   3 C    3     4.9354     9.3266    2 C    0 1 0    4 C    0-1 0    6 C   -1-1 0

   4 C    3     1.4247     2.6924    9 C    0 0 0   10 C    0 1 0   12 C    0 0 0
   4 C    5     2.4677     4.6633    1 C    0 0 0    2 C    0 1 0    3 C    0 0 0
                                     5 C    0 1 0    6 C    0 0 0
   4 C    3     2.8495     5.3847    7 C    0 1 0    8 C    0 0 0   13 C    0 1 0
   4 C    6     3.7695     7.1233   11 C    0 0 0   11 C    0 1 0   14 C   -1 0 0
                                    14 C    0 1 0   15 C    0 0 0   15 C   -1 0 0
   4 C    5     4.9354     9.3266    1 C    1 0 0    2 C    0 0 0    3 C    0 1 0
                                     5 C   -1 0 0    6 C   -1 0 0
   4 C    6     5.1370     9.7075    7 C    0 0 0    7 C    1 1 0    8 C    1 1 0
                                     8 C    0 1 0   13 C   -1 0 0   13 C   -1 1 0

   5 C    3     1.4247     2.6924   10 C    0 0 0   13 C    0 0 0   14 C    0 0 0
   5 C    3     2.4677     4.6633    2 C    0 0 0    4 C    0-1 0    6 C    0-1 0
   5 C    3     2.8495     5.3847    8 C    1 0 0   11 C    0 0 0   12 C    0-1 0
   5 C    6     3.7695     7.1233    7 C    0 0 0    7 C    1 0 0    9 C    1 0 0
                                     9 C    0-1 0   15 C    0 0 0   15 C    0-1 0
   5 C    6     4.2742     8.0771    1 C    1 0 0    1 C    0-1 0    1 C    1-1 0
                                     3 C    0 0 0    3 C    1 0 0    3 C    0-1 0
   5 C    3     4.9354     9.3266    2 C    1 0 0    4 C    1 0 0    6 C    0 0 0

   6 C    3     1.4247     2.6924   12 C    0 0 0   13 C    0 1 0   15 C    0 0 0
   6 C    4     2.4677     4.6633    1 C    1 0 0    3 C    0 0 0    4 C    0 0 0
                                     5 C    0 1 0
   6 C    3     2.8495     5.3847    7 C    1 1 0   10 C    0 1 0   11 C    0 0 0
   6 C    6     3.7695     7.1233    8 C    0 0 0    8 C    1 1 0    9 C    0 0 0
                                     9 C    1 0 0   14 C    0 0 0   14 C    0 1 0
   6 C    3     4.2742     8.0771    2 C    0 0 0    2 C    1 1 0    2 C    0 1 0
   6 C    4     4.9354     9.3266    1 C    0 0 0    3 C    1 1 0    4 C    1 0 0
                                     5 C    0 0 0

   7 C    2     1.4247     2.6924    1 C    0-1 0    2 C    0 0 0
   7 C    6     2.4677     4.6633    8 C    0 0 0    9 C    0-1 0   10 C    0 0 0
                                    11 C    0 0 0   13 C   -1 0 0   15 C   -1-1 0
   7 C    3     2.8495     5.3847    3 C    0 0 0    4 C    0-1 0    6 C   -1-1 0
   7 C    2     3.7695     7.1233    5 C    0 0 0    5 C   -1 0 0
   7 C    6     4.2742     8.0771   12 C    0 0 0   12 C   -1-1 0   12 C    0-1 0
                                    14 C    0 0 0   14 C   -1-1 0   14 C   -1 0 0
   7 C    6     4.9354     9.3266    8 C    0-1 0    9 C    0 0 0   10 C   -1 0 0
                                    11 C   -1-1 0   13 C    0 0 0   15 C    0 0 0

   8 C    1     1.4247     2.6924    3 C    0 0 0
   8 C    6     2.4677     4.6633    7 C    0 0 0    9 C    0 0 0   11 C    0 0 0
                                    12 C    0 0 0   13 C   -1 0 0   14 C   -1 0 0
   8 C    3     2.8495     5.3847    2 C    0 0 0    4 C    0 0 0    5 C   -1 0 0
   8 C    4     3.7695     7.1233    1 C    0 0 0    1 C    0-1 0    6 C    0 0 0
                                     6 C   -1-1 0
   8 C    6     4.2742     8.0771   10 C    0 0 0   10 C   -1 0 0   10 C    0 1 0
                                    15 C    0 0 0   15 C   -1-1 0   15 C   -1 0 0
   8 C    6     4.9354     9.3266    7 C    0 1 0    9 C    0-1 0   11 C   -1 0 0
                                    12 C   -1-1 0   13 C    0 1 0   14 C    0 0 0

   9 C    2     1.4247     2.6924    1 C    0 0 0    4 C    0 0 0
   9 C    6     2.4677     4.6633    7 C    0 1 0    8 C    0 0 0   10 C    0 1 0
                                    12 C    0 0 0   14 C   -1 0 0   15 C   -1 0 0
   9 C    2     2.8495     5.3847    2 C    0 1 0    3 C    0 0 0
   9 C    4     3.7695     7.1233    5 C   -1 0 0    5 C    0 1 0    6 C    0 0 0
                                     6 C   -1 0 0
   9 C    6     4.2742     8.0771   11 C    0 0 0   11 C   -1 0 0   11 C    0 1 0
                                    13 C   -1 0 0   13 C    0 1 0   13 C   -1 1 0
   9 C    6     4.9354     9.3266    7 C    0 0 0    8 C    0 1 0   10 C   -1 0 0
                                    12 C   -1 0 0   14 C    0 1 0   15 C    0 0 0

  10 C    3     1.4247     2.6924    2 C    0 0 0    4 C    0-1 0    5 C    0 0 0
  10 C    6     2.4677     4.6633    7 C    0 0 0    9 C    0-1 0   11 C    0 0 0
                                    12 C    0-1 0   13 C    0 0 0   14 C    0 0 0
  10 C    2     2.8495     5.3847    1 C    0-1 0    6 C    0-1 0
  10 C    2     3.7695     7.1233    3 C    0 0 0    3 C    0-1 0
  10 C    6     4.2742     8.0771    8 C    0 0 0    8 C    1 0 0    8 C    0-1 0
                                    15 C    0 0 0   15 C   -1-1 0   15 C    0-1 0
  10 C    6     4.9354     9.3266    7 C    1 0 0    9 C    1 0 0   11 C    0-1 0
                                    12 C    0 0 0   13 C   -1 0 0   14 C   -1-1 0

  11 C    2     1.4247     2.6924    2 C    0 0 0    3 C    0 0 0
  11 C    6     2.4677     4.6633    7 C    0 0 0    8 C    0 0 0   10 C    0 0 0
                                    12 C    0 0 0   14 C    0 0 0   15 C    0 0 0
  11 C    2     2.8495     5.3847    5 C    0 0 0    6 C    0 0 0
  11 C    4     3.7695     7.1233    1 C    1 0 0    1 C    0-1 0    4 C    0 0 0
                                     4 C    0-1 0
  11 C    6     4.2742     8.0771    9 C    0 0 0    9 C    1 0 0    9 C    0-1 0
                                    13 C    0 0 0   13 C   -1 0 0   13 C    0 1 0
  11 C    6     4.9354     9.3266    7 C    1 1 0    8 C    1 0 0   10 C    0 1 0
                                    12 C    0-1 0   14 C   -1 0 0   15 C   -1-1 0

  12 C    3     1.4247     2.6924    3 C    0 0 0    4 C    0 0 0    6 C    0 0 0
  12 C    6     2.4677     4.6633    8 C    0 0 0    9 C    0 0 0   10 C    0 1 0
                                    11 C    0 0 0   13 C    0 1 0   15 C    0 0 0
  12 C    1     2.8495     5.3847    5 C    0 1 0
  12 C    4     3.7695     7.1233    1 C    0 0 0    1 C    1 0 0    2 C    0 0 0
                                     2 C    0 1 0
  12 C    6     4.2742     8.0771    7 C    0 0 0    7 C    1 1 0    7 C    0 1 0
                                    14 C    0 0 0   14 C   -1 0 0   14 C    0 1 0
  12 C    6     4.9354     9.3266    8 C    1 1 0    9 C    1 0 0   10 C    0 0 0
                                    11 C    0 1 0   13 C   -1 0 0   15 C   -1 0 0

  13 C    2     1.4247     2.6924    5 C    0 0 0    6 C    0-1 0
  13 C    6     2.4677     4.6633    7 C    1 0 0    8 C    1 0 0   10 C    0 0 0
                                    12 C    0-1 0   14 C    0 0 0   15 C    0-1 0
  13 C    2     2.8495     5.3847    1 C    1-1 0    4 C    0-1 0
  13 C    4     3.7695     7.1233    2 C    0 0 0    2 C    1 0 0    3 C    1 0 0
                                     3 C    0-1 0
  13 C    6     4.2742     8.0771    9 C    1 0 0    9 C    0-1 0    9 C    1-1 0
                                    11 C    0 0 0   11 C    1 0 0   11 C    0-1 0
  13 C    6     4.9354     9.3266    7 C    0 0 0    8 C    0-1 0   10 C    1 0 0
                                    12 C    1 0 0   14 C    0-1 0   15 C    0 0 0

  14 C    1     1.4247     2.6924    5 C    0 0 0
  14 C    6     2.4677     4.6633    8 C    1 0 0    9 C    1 0 0   10 C    0 0 0
                                    11 C    0 0 0   13 C    0 0 0   15 C    0 0 0
  14 C    2     2.8495     5.3847    1 C    1 0 0    2 C    0 0 0
  14 C    6     3.7695     7.1233    3 C    0 0 0    3 C    1 0 0    4 C    1 0 0
                                     4 C    0-1 0    6 C    0 0 0    6 C    0-1 0
  14 C    6     4.2742     8.0771    7 C    0 0 0    7 C    1 1 0    7 C    1 0 0
                                    12 C    0 0 0   12 C    1 0 0   12 C    0-1 0
  14 C    6     4.9354     9.3266    8 C    0 0 0    9 C    0-1 0   10 C    1 1 0
                                    11 C    1 0 0   13 C    0 1 0   15 C    0-1 0

  15 C    2     1.4247     2.6924    1 C    1 0 0    6 C    0 0 0
  15 C    6     2.4677     4.6633    7 C    1 1 0    9 C    1 0 0   11 C    0 0 0
                                    12 C    0 0 0   13 C    0 1 0   14 C    0 0 0
  15 C    1     2.8495     5.3847    3 C    0 0 0
  15 C    6     3.7695     7.1233    2 C    0 0 0    2 C    1 1 0    4 C    0 0 0
                                     4 C    1 0 0    5 C    0 0 0    5 C    0 1 0
  15 C    6     4.2742     8.0771    8 C    0 0 0    8 C    1 1 0    8 C    1 0 0
                                    10 C    0 0 0   10 C    1 1 0   10 C    0 1 0
  15 C    6     4.9354     9.3266    7 C    0 0 0    9 C    0 0 0   11 C    1 1 0
                                    12 C    1 0 0   13 C    0 0 0   14 C    0 1 0


 SYMMETRY ALLOWED INTERNAL DEGREE(S) OF FREEDOM:  42
 TTTTTTTTTTTTTTTTTTTTTTTTTTTTTT SYMM        TELAPSE        2.81 TCPU        1.82
 TTTTTTTTTTTTTTTTTTTTTTTTTTTTTT INT_SCREEN  TELAPSE        2.81 TCPU        1.82

 *******************************************************************************
 *                             OPTIMIZATION STARTS                             *
 *******************************************************************************
 RECLASIFICATION OF INDICES FOR INTEGRAL CALC ACCORDING TO DIFFERENT CRITERIA:
           FIXDELTE                  FIXDELTX              FIXDELTN
          0.10000000               0.80000000                 42
 *******************************************************************************

 *******************************************************************************
 COORDINATE OPTIMIZATION - POINT    1
 INFORMATION **** EXCBUF **** EXCH. BIPO BUFFER: WORDS USED =           0

 DFT PARAMETERS

     ATOM       ELECTRONS   NET CHARGE   R(ANGSTROM)
   1   6  C       6.0000      0.0000     0.77000000

 SIZE OF GRID=     504337
 TTTTTTTTTTTTTTTTTTTTTTTTTTTTTT MAKE_GRID2  TELAPSE        3.23 TCPU        2.24
 BECKE WEIGHT FUNCTION
 RADSAFE =     2.00
 TOLERANCES - DENSITY:10**- 6; POTENTIAL:10**- 9; GRID WGT:10**-14

 RADIAL INTEGRATION  - INTERVALS (POINTS,UPPER LIMIT):            1( 75,  4.0*R)

 ANGULAR INTEGRATION - INTERVALS (ACCURACY LEVEL [N. POINTS] UPPER LIMIT):
  1(  4[  86]   0.2)  2(  8[ 194]   0.5)  3( 12[ 350]   0.9)  4( 16[ 974]   3.5)
  5( 12[ 350]9999.0)
 TTTTTTTTTTTTTTTTTTTTTTTTTTTTTT INT_CALC    TELAPSE        3.27 TCPU        2.28

 *******************************************************************************
 Final                                                                           
 CRYSTAL - SCF - TYPE OF CALCULATION :  RESTRICTED CLOSED SHELL
 *******************************************************************************

 CAPPA:IS1  8;IS2  8;IS3  8; K PTS MONK NET 260; SYMMOPS:K SPACE   2;G SPACE   1

 TTTTTTTTTTTTTTTTTTTTTTTTTTTTTT SDIK        TELAPSE        3.33 TCPU        2.34

 AAAAAAAAAAAAAAAAAAAAAAAAAAAAAAAAAAAAAAAAAAAAAAAAAAAAAAAAAAAAAAAAAAAAAAAAAAAAAAA
         ATOMIC WAVEFUNCTION(S)


 NUCLEAR CHARGE  6.0  SYMMETRY SPECIES            S    P
 N. ELECTRONS    6.0  NUMBER OF PRIMITIVE GTOS   10    6
                      NUMBER OF CONTRACTED GTOS   4    3
                      NUMBER OF CLOSED SHELLS     2    0
                      OPEN SHELL OCCUPATION       0    2

  ZNUC SCFIT  TOTAL HF ENERGY   KINETIC ENERGY   VIRIAL THEOREM ACCURACY
   6.0  10   -3.768111494E+01  3.771190961E+01 -1.999183423E+00  3.4E-06

 AAAAAAAAAAAAAAAAAAAAAAAAAAAAAAAAAAAAAAAAAAAAAAAAAAAAAAAAAAAAAAAAAAAAAAAAAAAAAAA

 CHARGE NORMALIZATION FACTOR   1.00000000
 TOTAL ATOMIC CHARGES:
   6.0000000   6.0000000   6.0000000   6.0000000   6.0000000   6.0000000
   6.0000000   6.0000000   6.0000000   6.0000000   6.0000000   6.0000000
   6.0000000   6.0000000   6.0000000
 TTTTTTTTTTTTTTTTTTTTTTTTTTTTTT MOQGAD      TELAPSE        3.34 TCPU        2.35
 TTTTTTTTTTTTTTTTTTTTTTTTTTTTTT SHELLXN     TELAPSE        3.88 TCPU        2.89
 TTTTTTTTTTTTTTTTTTTTTTTTTTTTTT MONMO3      TELAPSE        4.11 TCPU        3.12
 NUMERICALLY INTEGRATED DENSITY     89.9998092205
 TTTTTTTTTTTTTTTTTTTTTTTTTTTTTT NUMDFT      TELAPSE        4.26 TCPU        3.27
 CYC   0 ETOT(AU) -5.736366612078E+02 DETOT -5.74E+02 tst  0.00E+00 PX  1.00E+00
 TTTTTTTTTTTTTTTTTTTTTTTTTTTTTT DIIS        TELAPSE        4.27 TCPU        3.28
 TTTTTTTTTTTTTTTTTTTTTTTTTTTTTT FDIK        TELAPSE        4.43 TCPU        3.43
 INSULATING STATE
 TOP OF VALENCE BANDS -    BAND     45; K    9; EIG -2.2533012E-01 AU
 TOP OF VALENCE BANDS -    BAND     45; K    1; EIG -2.3652289E-01 AU
 BOTTOM OF VIRTUAL BANDS - BAND     46; K   10; EIG -2.2531342E-01 AU
 INDIRECT ENERGY BAND GAP:   0.0005 eV
 BOTTOM OF VIRTUAL BANDS - BAND     46; K    1; EIG -1.9888869E-01 AU
 TTTTTTTTTTTTTTTTTTTTTTTTTTTTTT PDIG        TELAPSE        4.48 TCPU        3.48
 CHARGE NORMALIZATION FACTOR   1.00000000
 TOTAL ATOMIC CHARGES:
   6.1193792   6.0899661   6.1513220   6.0881686   6.0857583   6.1051877
   6.0725929   5.6925523   6.2802079   6.0547499   6.0837746   6.0377276
   5.6761244   5.6337908   5.8286979
 TTTTTTTTTTTTTTTTTTTTTTTTTTTTTT MOQGAD      TELAPSE        4.48 TCPU        3.48
 TTTTTTTTTTTTTTTTTTTTTTTTTTTTTT SHELLXN     TELAPSE        5.11 TCPU        4.11
 TTTTTTTTTTTTTTTTTTTTTTTTTTTTTT MONMO3      TELAPSE        5.36 TCPU        4.37
 NUMERICALLY INTEGRATED DENSITY     89.9998524685
 TTTTTTTTTTTTTTTTTTTTTTTTTTTTTT NUMDFT      TELAPSE        5.62 TCPU        4.63
 CYC   1 ETOT(AU) -5.701831834514E+02 DETOT  3.45E+00 tst  0.00E+00 PX  1.00E+00
 TTTTTTTTTTTTTTTTTTTTTTTTTTTTTT DIIS        TELAPSE        5.64 TCPU        4.64
 DIIS TEST: 0.12957E+01 AT SCF   CYCLE   1 - MIX   30 %
 TTTTTTTTTTTTTTTTTTTTTTTTTTTTTT FDIK        TELAPSE        5.80 TCPU        4.80
 POSSIBLY CONDUCTING STATE - EFERMI(AU) -1.9988250E-01 (RES. CHARGE  9.31E-08;IT. 41)
 TTTTTTTTTTTTTTTTTTTTTTTTTTTTTT PDIG        TELAPSE        5.90 TCPU        4.90
 CHARGE NORMALIZATION FACTOR   1.00000000
 TOTAL ATOMIC CHARGES:
   5.6327539   5.6920867   5.6191762   5.6369883   5.8041241   5.8290523
   5.4814743   7.5282784   4.7055344   5.7642196   5.6882967   5.8486761
   7.2855546   7.3800966   6.1036877
 TTTTTTTTTTTTTTTTTTTTTTTTTTTTTT MOQGAD      TELAPSE        5.90 TCPU        4.90
 TTTTTTTTTTTTTTTTTTTTTTTTTTTTTT SHELLXN     TELAPSE        6.53 TCPU        5.53
 TTTTTTTTTTTTTTTTTTTTTTTTTTTTTT MONMO3      TELAPSE        6.79 TCPU        5.79
 NUMERICALLY INTEGRATED DENSITY     89.9998163445
 TTTTTTTTTTTTTTTTTTTTTTTTTTTTTT NUMDFT      TELAPSE        7.15 TCPU        6.15
 CYC   2 ETOT(AU) -5.684976800602E+02 DETOT  1.69E+00 tst  3.26E-01 PX  3.26E-01
 TTTTTTTTTTTTTTTTTTTTTTTTTTTTTT DIIS        TELAPSE        7.18 TCPU        6.18
 DIIS TEST: 0.14604E+02 AT SCF   CYCLE   2 - DIIS ACTIVE - HISTORY:     2 CYCLES
 TTTTTTTTTTTTTTTTTTTTTTTTTTTTTT FDIK        TELAPSE        7.37 TCPU        6.36
 INSULATING STATE
 TOP OF VALENCE BANDS -    BAND     45; K   27; EIG -1.5432503E-01 AU
 TOP OF VALENCE BANDS -    BAND     45; K    1; EIG -1.6074603E-01 AU
 BOTTOM OF VIRTUAL BANDS - BAND     46; K   79; EIG -1.5381945E-01 AU
 INDIRECT ENERGY BAND GAP:   0.0138 eV
 BOTTOM OF VIRTUAL BANDS - BAND     46; K    1; EIG -1.3504194E-01 AU
 TTTTTTTTTTTTTTTTTTTTTTTTTTTTTT PDIG        TELAPSE        7.41 TCPU        6.41
 CHARGE NORMALIZATION FACTOR   1.00000000
 TOTAL ATOMIC CHARGES:
   5.9040268   5.9027826   5.8037626   5.8962639   5.7234037   5.8092190
   6.5781369   5.6775366   5.9649927   5.9813846   6.6752630   5.8610255
   5.4864565   6.0155686   6.7201769
 TTTTTTTTTTTTTTTTTTTTTTTTTTTTTT MOQGAD      TELAPSE        7.41 TCPU        6.41
 TTTTTTTTTTTTTTTTTTTTTTTTTTTTTT SHELLXN     TELAPSE        8.05 TCPU        7.04
 TTTTTTTTTTTTTTTTTTTTTTTTTTTTTT MONMO3      TELAPSE        8.30 TCPU        7.29
 NUMERICALLY INTEGRATED DENSITY     89.9998129198
 TTTTTTTTTTTTTTTTTTTTTTTTTTTTTT NUMDFT      TELAPSE        8.56 TCPU        7.55
 CYC   3 ETOT(AU) -5.699646635269E+02 DETOT -1.47E+00 tst  9.76E-02 PX  2.79E-01
 TTTTTTTTTTTTTTTTTTTTTTTTTTTTTT DIIS        TELAPSE        8.57 TCPU        7.56
 DIIS TEST: 0.32738E+01 AT SCF   CYCLE   3 - DIIS ACTIVE - HISTORY:     3 CYCLES
 TTTTTTTTTTTTTTTTTTTTTTTTTTTTTT FDIK        TELAPSE        8.73 TCPU        7.72
 POSSIBLY CONDUCTING STATE - EFERMI(AU) -1.6047986E-01 (RES. CHARGE  7.74E-13;IT. 12)
 TTTTTTTTTTTTTTTTTTTTTTTTTTTTTT PDIG        TELAPSE        8.83 TCPU        7.81
 CHARGE NORMALIZATION FACTOR   1.00000000
 TOTAL ATOMIC CHARGES:
   5.9091923   5.8986170   5.9240236   6.0246742   5.9100814   5.9272822
   6.0377807   6.5058988   6.3105737   6.0309596   5.7315683   6.0985454
   6.2317982   5.9296486   5.5293560
 TTTTTTTTTTTTTTTTTTTTTTTTTTTTTT MOQGAD      TELAPSE        8.83 TCPU        7.82
 TTTTTTTTTTTTTTTTTTTTTTTTTTTTTT SHELLXN     TELAPSE        9.46 TCPU        8.44
 TTTTTTTTTTTTTTTTTTTTTTTTTTTTTT MONMO3      TELAPSE        9.71 TCPU        8.70
 NUMERICALLY INTEGRATED DENSITY     89.9998141126
 TTTTTTTTTTTTTTTTTTTTTTTTTTTTTT NUMDFT      TELAPSE       10.08 TCPU        9.07
 CYC   4 ETOT(AU) -5.701997220702E+02 DETOT -2.35E-01 tst  7.33E-02 PX  1.65E-01
 TTTTTTTTTTTTTTTTTTTTTTTTTTTTTT DIIS        TELAPSE       10.11 TCPU        9.10
 DIIS TEST: 0.13895E+01 AT SCF   CYCLE   4 - DIIS ACTIVE - HISTORY:     4 CYCLES
 TTTTTTTTTTTTTTTTTTTTTTTTTTTTTT FDIK        TELAPSE       10.28 TCPU        9.26
 POSSIBLY CONDUCTING STATE - EFERMI(AU) -1.6905064E-01 (RES. CHARGE  1.29E-11;IT. 10)
 TTTTTTTTTTTTTTTTTTTTTTTTTTTTTT PDIG        TELAPSE       10.37 TCPU        9.36
 CHARGE NORMALIZATION FACTOR   1.00000000
 TOTAL ATOMIC CHARGES:
   5.9988668   5.9816830   6.0033036   5.9562089   6.0084272   6.0804700
   5.7193641   5.5700491   5.5690783   6.1156877   6.0421794   6.0154385
   6.2436934   6.5023224   6.1932275
 TTTTTTTTTTTTTTTTTTTTTTTTTTTTTT MOQGAD      TELAPSE       10.38 TCPU        9.36
 TTTTTTTTTTTTTTTTTTTTTTTTTTTTTT SHELLXN     TELAPSE       11.00 TCPU        9.98
 TTTTTTTTTTTTTTTTTTTTTTTTTTTTTT MONMO3      TELAPSE       11.26 TCPU       10.25
 NUMERICALLY INTEGRATED DENSITY     89.9998180058
 TTTTTTTTTTTTTTTTTTTTTTTTTTTTTT NUMDFT      TELAPSE       11.52 TCPU       10.50
 CYC   5 ETOT(AU) -5.701635127265E+02 DETOT  3.62E-02 tst  9.27E-03 PX  1.82E-01
 TTTTTTTTTTTTTTTTTTTTTTTTTTTTTT DIIS        TELAPSE       11.54 TCPU       10.52
 DIIS TEST: 0.14558E+01 AT SCF   CYCLE   5 - DIIS ACTIVE - HISTORY:     5 CYCLES
 TTTTTTTTTTTTTTTTTTTTTTTTTTTTTT FDIK        TELAPSE       11.70 TCPU       10.68
 POSSIBLY CONDUCTING STATE - EFERMI(AU) -1.7369911E-01 (RES. CHARGE  4.59E-10;IT. 12)
 TTTTTTTTTTTTTTTTTTTTTTTTTTTTTT PDIG        TELAPSE       11.80 TCPU       10.78
 CHARGE NORMALIZATION FACTOR   1.00000000
 TOTAL ATOMIC CHARGES:
   6.0045232   5.9950354   6.0307023   5.9570985   5.9559614   6.0179786
   6.0741558   6.4611211   5.8218496   5.9555157   6.2382769   5.9816159
   5.8770896   5.7973016   5.8317743
 TTTTTTTTTTTTTTTTTTTTTTTTTTTTTT MOQGAD      TELAPSE       11.80 TCPU       10.78
 TTTTTTTTTTTTTTTTTTTTTTTTTTTTTT SHELLXN     TELAPSE       12.43 TCPU       11.41
 TTTTTTTTTTTTTTTTTTTTTTTTTTTTTT MONMO3      TELAPSE       12.68 TCPU       11.66
 NUMERICALLY INTEGRATED DENSITY     89.9998214326
 TTTTTTTTTTTTTTTTTTTTTTTTTTTTTT NUMDFT      TELAPSE       13.04 TCPU       12.02
 CYC   6 ETOT(AU) -5.703032388379E+02 DETOT -1.40E-01 tst  1.38E-02 PX  1.81E-01
 TTTTTTTTTTTTTTTTTTTTTTTTTTTTTT DIIS        TELAPSE       13.07 TCPU       12.05
 DIIS TEST: 0.46500E+00 AT SCF   CYCLE   6 - DIIS ACTIVE - HISTORY:     6 CYCLES
 TTTTTTTTTTTTTTTTTTTTTTTTTTTTTT FDIK        TELAPSE       13.24 TCPU       12.22
 POSSIBLY CONDUCTING STATE - EFERMI(AU) -1.7707446E-01 (RES. CHARGE  5.98E-12;IT. 10)
 TTTTTTTTTTTTTTTTTTTTTTTTTTTTTT PDIG        TELAPSE       13.33 TCPU       12.31
 CHARGE NORMALIZATION FACTOR   1.00000000
 TOTAL ATOMIC CHARGES:
   6.0087287   5.9594978   5.9673575   5.9730947   5.9475395   5.9951283
   6.0476169   5.9612906   6.1056207   6.0196973   5.9600119   5.9521805
   5.9521656   6.0777098   6.0723603
 TTTTTTTTTTTTTTTTTTTTTTTTTTTTTT MOQGAD      TELAPSE       13.33 TCPU       12.31
 TTTTTTTTTTTTTTTTTTTTTTTTTTTTTT SHELLXN     TELAPSE       13.96 TCPU       12.94
 TTTTTTTTTTTTTTTTTTTTTTTTTTTTTT MONMO3      TELAPSE       14.22 TCPU       13.20
 NUMERICALLY INTEGRATED DENSITY     89.9998239511
 TTTTTTTTTTTTTTTTTTTTTTTTTTTTTT NUMDFT      TELAPSE       14.47 TCPU       13.45
 CYC   7 ETOT(AU) -5.703557653970E+02 DETOT -5.25E-02 tst  2.81E-03 PX  1.21E-01
 TTTTTTTTTTTTTTTTTTTTTTTTTTTTTT DIIS        TELAPSE       14.49 TCPU       13.46
 DIIS TEST: 0.84147E-01 AT SCF   CYCLE   7 - DIIS ACTIVE - HISTORY:     7 CYCLES
 TTTTTTTTTTTTTTTTTTTTTTTTTTTTTT FDIK        TELAPSE       14.65 TCPU       13.62
 POSSIBLY CONDUCTING STATE - EFERMI(AU) -1.7651651E-01 (RES. CHARGE  6.98E-12;IT. 14)
 TTTTTTTTTTTTTTTTTTTTTTTTTTTTTT PDIG        TELAPSE       14.74 TCPU       13.71
 CHARGE NORMALIZATION FACTOR   1.00000000
 TOTAL ATOMIC CHARGES:
   5.9533823   5.9644172   5.9603642   5.9888653   5.9313752   5.9624185
   6.1058246   5.9988259   5.9711128   6.0501872   6.1814973   6.0395401
   6.0180998   6.0291714   5.8449183
 TTTTTTTTTTTTTTTTTTTTTTTTTTTTTT MOQGAD      TELAPSE       14.75 TCPU       13.72
 TTTTTTTTTTTTTTTTTTTTTTTTTTTTTT SHELLXN     TELAPSE       15.38 TCPU       14.34
 TTTTTTTTTTTTTTTTTTTTTTTTTTTTTT MONMO3      TELAPSE       15.63 TCPU       14.60
 NUMERICALLY INTEGRATED DENSITY     89.9998231627
 TTTTTTTTTTTTTTTTTTTTTTTTTTTTTT NUMDFT      TELAPSE       15.89 TCPU       14.86
 CYC   8 ETOT(AU) -5.703586679175E+02 DETOT -2.90E-03 tst  5.94E-04 PX  4.66E-02
 TTTTTTTTTTTTTTTTTTTTTTTTTTTTTT DIIS        TELAPSE       15.91 TCPU       14.87
 DIIS TEST: 0.65016E-01 AT SCF   CYCLE   8 - DIIS ACTIVE - HISTORY:     8 CYCLES
 TTTTTTTTTTTTTTTTTTTTTTTTTTTTTT FDIK        TELAPSE       16.07 TCPU       15.03
 POSSIBLY CONDUCTING STATE - EFERMI(AU) -1.7788285E-01 (RES. CHARGE  9.52E-10;IT. 10)
 TTTTTTTTTTTTTTTTTTTTTTTTTTTTTT PDIG        TELAPSE       16.16 TCPU       15.12
 CHARGE NORMALIZATION FACTOR   1.00000000
 TOTAL ATOMIC CHARGES:
   5.9697492   5.9534866   5.9707685   5.9901086   5.9282079   5.9843721
   6.0327391   6.0720846   5.9938383   6.0157211   6.0587534   6.0759774
   5.9521317   5.9142758   6.0877858
 TTTTTTTTTTTTTTTTTTTTTTTTTTTTTT MOQGAD      TELAPSE       16.16 TCPU       15.12
 TTTTTTTTTTTTTTTTTTTTTTTTTTTTTT SHELLXN     TELAPSE       16.79 TCPU       15.75
 TTTTTTTTTTTTTTTTTTTTTTTTTTTTTT MONMO3      TELAPSE       17.05 TCPU       16.01
 NUMERICALLY INTEGRATED DENSITY     89.9998238289
 TTTTTTTTTTTTTTTTTTTTTTTTTTTTTT NUMDFT      TELAPSE       17.30 TCPU       16.26
 CYC   9 ETOT(AU) -5.703606175530E+02 DETOT -1.95E-03 tst  5.23E-04 PX  3.87E-02
 TTTTTTTTTTTTTTTTTTTTTTTTTTTTTT DIIS        TELAPSE       17.32 TCPU       16.28
 DIIS TEST: 0.47079E-01 AT SCF   CYCLE   9 - DIIS ACTIVE - HISTORY:     9 CYCLES
 TTTTTTTTTTTTTTTTTTTTTTTTTTTTTT FDIK        TELAPSE       17.50 TCPU       16.46
 POSSIBLY CONDUCTING STATE - EFERMI(AU) -1.7715025E-01 (RES. CHARGE  1.23E-11;IT. 14)
 TTTTTTTTTTTTTTTTTTTTTTTTTTTTTT PDIG        TELAPSE       17.59 TCPU       16.55
 CHARGE NORMALIZATION FACTOR   1.00000000
 TOTAL ATOMIC CHARGES:
   5.9826278   5.9639036   5.9728622   5.9832014   5.9427539   5.9822511
   6.0387083   6.0695293   5.9774908   6.0272511   6.0888898   5.9878686
   5.9361935   6.0664793   5.9799894
 TTTTTTTTTTTTTTTTTTTTTTTTTTTTTT MOQGAD      TELAPSE       17.59 TCPU       16.55
 TTTTTTTTTTTTTTTTTTTTTTTTTTTTTT SHELLXN     TELAPSE       18.21 TCPU       17.18
 TTTTTTTTTTTTTTTTTTTTTTTTTTTTTT MONMO3      TELAPSE       18.48 TCPU       17.44
 NUMERICALLY INTEGRATED DENSITY     89.9998226284
 TTTTTTTTTTTTTTTTTTTTTTTTTTTTTT NUMDFT      TELAPSE       18.73 TCPU       17.70
 CYC  10 ETOT(AU) -5.703656079327E+02 DETOT -4.99E-03 tst  4.00E-04 PX  3.85E-02
 TTTTTTTTTTTTTTTTTTTTTTTTTTTTTT DIIS        TELAPSE       18.75 TCPU       17.72
 DIIS TEST: 0.85686E-02 AT SCF   CYCLE  10 - DIIS ACTIVE - HISTORY:    10 CYCLES
 TTTTTTTTTTTTTTTTTTTTTTTTTTTTTT FDIK        TELAPSE       18.92 TCPU       17.88
 POSSIBLY CONDUCTING STATE - EFERMI(AU) -1.7707538E-01 (RES. CHARGE  7.23E-12;IT.  8)
 TTTTTTTTTTTTTTTTTTTTTTTTTTTTTT PDIG        TELAPSE       19.01 TCPU       17.97
 CHARGE NORMALIZATION FACTOR   1.00000000
 TOTAL ATOMIC CHARGES:
   5.9845697   5.9629317   5.9718315   5.9786832   5.9404314   5.9862169
   6.0709405   6.0541650   5.9798910   6.0192693   6.0711443   5.9870095
   5.9902734   6.0121711   5.9904714
 TTTTTTTTTTTTTTTTTTTTTTTTTTTTTT MOQGAD      TELAPSE       19.01 TCPU       17.97
 TTTTTTTTTTTTTTTTTTTTTTTTTTTTTT SHELLXN     TELAPSE       19.64 TCPU       18.60
 TTTTTTTTTTTTTTTTTTTTTTTTTTTTTT MONMO3      TELAPSE       19.90 TCPU       18.86
 NUMERICALLY INTEGRATED DENSITY     89.9998230908
 TTTTTTTTTTTTTTTTTTTTTTTTTTTTTT NUMDFT      TELAPSE       20.16 TCPU       19.11
 CYC  11 ETOT(AU) -5.703664923375E+02 DETOT -8.84E-04 tst  7.37E-05 PX  1.10E-02
 TTTTTTTTTTTTTTTTTTTTTTTTTTTTTT DIIS        TELAPSE       20.18 TCPU       19.13
 DIIS TEST: 0.24944E-02 AT SCF   CYCLE  11 - DIIS ACTIVE - HISTORY:    11 CYCLES
 TTTTTTTTTTTTTTTTTTTTTTTTTTTTTT FDIK        TELAPSE       20.35 TCPU       19.31
 POSSIBLY CONDUCTING STATE - EFERMI(AU) -1.7710181E-01 (RES. CHARGE  3.38E-12;IT.  8)
 TTTTTTTTTTTTTTTTTTTTTTTTTTTTTT PDIG        TELAPSE       20.44 TCPU       19.40
 CHARGE NORMALIZATION FACTOR   1.00000000
 TOTAL ATOMIC CHARGES:
   5.9825371   5.9601927   5.9725848   5.9774295   5.9377869   5.9852549
   6.0576134   6.0580454   6.0048017   6.0182208   6.0769325   6.0042018
   5.9721083   6.0212735   5.9710165
 TTTTTTTTTTTTTTTTTTTTTTTTTTTTTT MOQGAD      TELAPSE       20.44 TCPU       19.40
 TTTTTTTTTTTTTTTTTTTTTTTTTTTTTT SHELLXN     TELAPSE       21.07 TCPU       20.03
 TTTTTTTTTTTTTTTTTTTTTTTTTTTTTT MONMO3      TELAPSE       21.33 TCPU       20.28
 NUMERICALLY INTEGRATED DENSITY     89.9998228620
 TTTTTTTTTTTTTTTTTTTTTTTTTTTTTT NUMDFT      TELAPSE       21.59 TCPU       20.54
 CYC  12 ETOT(AU) -5.703667962481E+02 DETOT -3.04E-04 tst  7.72E-06 PX  5.22E-03
 TTTTTTTTTTTTTTTTTTTTTTTTTTTTTT DIIS        TELAPSE       21.61 TCPU       20.56
 DIIS TEST: 0.20355E-03 AT SCF   CYCLE  12 - DIIS ACTIVE - HISTORY:    12 CYCLES
 TTTTTTTTTTTTTTTTTTTTTTTTTTTTTT FDIK        TELAPSE       21.79 TCPU       20.74
 POSSIBLY CONDUCTING STATE - EFERMI(AU) -1.7707558E-01 (RES. CHARGE  1.21E-10;IT.  6)
 TTTTTTTTTTTTTTTTTTTTTTTTTTTTTT PDIG        TELAPSE       21.88 TCPU       20.83
 CHARGE NORMALIZATION FACTOR   1.00000000
 TOTAL ATOMIC CHARGES:
   5.9814024   5.9615725   5.9709393   5.9795741   5.9392139   5.9838809
   6.0610242   6.0594300   6.0015809   6.0233436   6.0724517   6.0016404
   5.9707397   6.0179041   5.9753022
 TTTTTTTTTTTTTTTTTTTTTTTTTTTTTT MOQGAD      TELAPSE       21.88 TCPU       20.83
 TTTTTTTTTTTTTTTTTTTTTTTTTTTTTT SHELLXN     TELAPSE       22.51 TCPU       21.46
 TTTTTTTTTTTTTTTTTTTTTTTTTTTTTT MONMO3      TELAPSE       22.77 TCPU       21.72
 NUMERICALLY INTEGRATED DENSITY     89.9998229193
 TTTTTTTTTTTTTTTTTTTTTTTTTTTTTT NUMDFT      TELAPSE       23.02 TCPU       21.97
 CYC  13 ETOT(AU) -5.703668139258E+02 DETOT -1.77E-05 tst  1.04E-06 PX  1.01E-03
 TTTTTTTTTTTTTTTTTTTTTTTTTTTTTT DIIS        TELAPSE       23.04 TCPU       21.99
 DIIS TEST: 0.48660E-04 AT SCF   CYCLE  13 - DIIS ACTIVE - HISTORY:    13 CYCLES
 TTTTTTTTTTTTTTTTTTTTTTTTTTTTTT FDIK        TELAPSE       23.22 TCPU       22.17
 POSSIBLY CONDUCTING STATE - EFERMI(AU) -1.7715113E-01 (RES. CHARGE  2.13E-13;IT. 10)
 TTTTTTTTTTTTTTTTTTTTTTTTTTTTTT PDIG        TELAPSE       23.31 TCPU       22.26
 CHARGE NORMALIZATION FACTOR   1.00000000
 TOTAL ATOMIC CHARGES:
   5.9820817   5.9614554   5.9713753   5.9803384   5.9391819   5.9839491
   6.0597325   6.0569876   6.0034641   6.0210210   6.0749113   5.9994444
   5.9708245   6.0160610   5.9791718
 TTTTTTTTTTTTTTTTTTTTTTTTTTTTTT MOQGAD      TELAPSE       23.31 TCPU       22.26
 TTTTTTTTTTTTTTTTTTTTTTTTTTTTTT SHELLXN     TELAPSE       23.95 TCPU       22.89
 TTTTTTTTTTTTTTTTTTTTTTTTTTTTTT MONMO3      TELAPSE       24.20 TCPU       23.15
 NUMERICALLY INTEGRATED DENSITY     89.9998229785
 TTTTTTTTTTTTTTTTTTTTTTTTTTTTTT NUMDFT      TELAPSE       24.46 TCPU       23.40
 CYC  14 ETOT(AU) -5.703668168231E+02 DETOT -2.90E-06 tst  2.12E-07 PX  7.57E-04
 TTTTTTTTTTTTTTTTTTTTTTTTTTTTTT DIIS        TELAPSE       24.48 TCPU       23.42
 DIIS TEST: 0.10267E-04 AT SCF   CYCLE  14 - DIIS ACTIVE - HISTORY:    14 CYCLES
 TTTTTTTTTTTTTTTTTTTTTTTTTTTTTT FDIK        TELAPSE       24.64 TCPU       23.58
 POSSIBLY CONDUCTING STATE - EFERMI(AU) -1.7714680E-01 (RES. CHARGE  2.40E-12;IT.  6)
 TTTTTTTTTTTTTTTTTTTTTTTTTTTTTT PDIG        TELAPSE       24.73 TCPU       23.67
 CHARGE NORMALIZATION FACTOR   1.00000000
 TOTAL ATOMIC CHARGES:
   5.9823411   5.9614264   5.9714800   5.9798159   5.9389580   5.9842243
   6.0614950   6.0567522   6.0020002   6.0211085   6.0733128   6.0007399
   5.9696652   6.0181276   5.9785528
 TTTTTTTTTTTTTTTTTTTTTTTTTTTTTT MOQGAD      TELAPSE       24.73 TCPU       23.67
 TTTTTTTTTTTTTTTTTTTTTTTTTTTTTT SHELLXN     TELAPSE       25.36 TCPU       24.30
 TTTTTTTTTTTTTTTTTTTTTTTTTTTTTT MONMO3      TELAPSE       25.62 TCPU       24.56
 NUMERICALLY INTEGRATED DENSITY     89.9998229586
 TTTTTTTTTTTTTTTTTTTTTTTTTTTTTT NUMDFT      TELAPSE       25.88 TCPU       24.82
 CYC  15 ETOT(AU) -5.703668184065E+02 DETOT -1.58E-06 tst  1.10E-07 PX  4.76E-04
 TTTTTTTTTTTTTTTTTTTTTTTTTTTTTT DIIS        TELAPSE       25.90 TCPU       24.84
 DIIS TEST: 0.24769E-05 AT SCF   CYCLE  15 - DIIS ACTIVE - HISTORY:    15 CYCLES
 TTTTTTTTTTTTTTTTTTTTTTTTTTTTTT FDIK        TELAPSE       26.08 TCPU       25.02
 POSSIBLY CONDUCTING STATE - EFERMI(AU) -1.7715770E-01 (RES. CHARGE  3.55E-14;IT.  8)
 TTTTTTTTTTTTTTTTTTTTTTTTTTTTTT PDIG        TELAPSE       26.17 TCPU       25.11
 CHARGE NORMALIZATION FACTOR   1.00000000
 TOTAL ATOMIC CHARGES:
   5.9822992   5.9614624   5.9713630   5.9794056   5.9388308   5.9842369
   6.0610030   6.0570114   6.0024911   6.0215651   6.0741664   6.0005492
   5.9699893   6.0171141   5.9785128
 TTTTTTTTTTTTTTTTTTTTTTTTTTTTTT MOQGAD      TELAPSE       26.17 TCPU       25.11
 TTTTTTTTTTTTTTTTTTTTTTTTTTTTTT SHELLXN     TELAPSE       26.79 TCPU       25.73
 TTTTTTTTTTTTTTTTTTTTTTTTTTTTTT MONMO3      TELAPSE       27.06 TCPU       26.00
 NUMERICALLY INTEGRATED DENSITY     89.9998229682
 TTTTTTTTTTTTTTTTTTTTTTTTTTTTTT NUMDFT      TELAPSE       27.43 TCPU       26.37
 CYC  16 ETOT(AU) -5.703668185871E+02 DETOT -1.81E-07 tst  1.40E-08 PX  2.13E-04
 TTTTTTTTTTTTTTTTTTTTTTTTTTTTTT DIIS        TELAPSE       27.47 TCPU       26.41
 DIIS TEST: 0.28722E-06 AT SCF   CYCLE  16 - DIIS ACTIVE - HISTORY:    16 CYCLES
 TTTTTTTTTTTTTTTTTTTTTTTTTTTTTT FDIK        TELAPSE       27.65 TCPU       26.57
 POSSIBLY CONDUCTING STATE - EFERMI(AU) -1.7715633E-01 (RES. CHARGE  3.55E-14;IT.  6)
 TTTTTTTTTTTTTTTTTTTTTTTTTTTTTT PDIG        TELAPSE       27.74 TCPU       26.66
 CHARGE NORMALIZATION FACTOR   1.00000000
 TOTAL ATOMIC CHARGES:
   5.9822282   5.9614495   5.9714052   5.9795961   5.9389170   5.9842001
   6.0610903   6.0569464   6.0022906   6.0213988   6.0741603   6.0005525
   5.9700465   6.0172913   5.9784273
 TTTTTTTTTTTTTTTTTTTTTTTTTTTTTT MOQGAD      TELAPSE       27.74 TCPU       26.67
 TTTTTTTTTTTTTTTTTTTTTTTTTTTTTT SHELLXN     TELAPSE       28.37 TCPU       27.30
 TTTTTTTTTTTTTTTTTTTTTTTTTTTTTT MONMO3      TELAPSE       28.63 TCPU       27.55
 NUMERICALLY INTEGRATED DENSITY     89.9998229663
 TTTTTTTTTTTTTTTTTTTTTTTTTTTTTT NUMDFT      TELAPSE       28.88 TCPU       27.81
 CYC  17 ETOT(AU) -5.703668186847E+02 DETOT -9.76E-08 tst  5.81E-10 PX  4.81E-05
 TTTTTTTTTTTTTTTTTTTTTTTTTTTTTT DIIS        TELAPSE       28.90 TCPU       27.83
 DIIS TEST: 0.29205E-07 AT SCF   CYCLE  17 - DIIS ACTIVE - HISTORY:    17 CYCLES
 TTTTTTTTTTTTTTTTTTTTTTTTTTTTTT FDIK        TELAPSE       29.08 TCPU       28.01
 POSSIBLY CONDUCTING STATE - EFERMI(AU) -1.7715625E-01 (RES. CHARGE  5.57E-11;IT.  4)
 TTTTTTTTTTTTTTTTTTTTTTTTTTTTTT PDIG        TELAPSE       29.17 TCPU       28.10
 CHARGE NORMALIZATION FACTOR   1.00000000
 TOTAL ATOMIC CHARGES:
   5.9822463   5.9614575   5.9713972   5.9795822   5.9389110   5.9842056
   6.0610870   6.0570027   6.0022861   6.0213983   6.0741397   6.0005718
   5.9700941   6.0172816   5.9783389
 TTTTTTTTTTTTTTTTTTTTTTTTTTTTTT MOQGAD      TELAPSE       29.18 TCPU       28.10
 TTTTTTTTTTTTTTTTTTTTTTTTTTTTTT SHELLXN     TELAPSE       29.81 TCPU       28.73
 TTTTTTTTTTTTTTTTTTTTTTTTTTTTTT MONMO3      TELAPSE       30.06 TCPU       28.99
 NUMERICALLY INTEGRATED DENSITY     89.9998229658
 TTTTTTTTTTTTTTTTTTTTTTTTTTTTTT NUMDFT      TELAPSE       30.41 TCPU       29.33
 CYC  18 ETOT(AU) -5.703668186971E+02 DETOT -1.24E-08 tst  1.03E-10 PX  1.11E-05
 TTTTTTTTTTTTTTTTTTTTTTTTTTTTTT DIIS        TELAPSE       30.45 TCPU       29.37
 DIIS TEST: 0.16924E-08 AT SCF   CYCLE  18 - DIIS ACTIVE - HISTORY:    17 CYCLES
 TTTTTTTTTTTTTTTTTTTTTTTTTTTTTT FDIK        TELAPSE       30.61 TCPU       29.53
 POSSIBLY CONDUCTING STATE - EFERMI(AU) -1.7715602E-01 (RES. CHARGE  4.94E-10;IT.  4)
 TTTTTTTTTTTTTTTTTTTTTTTTTTTTTT PDIG        TELAPSE       30.70 TCPU       29.62
 CHARGE NORMALIZATION FACTOR   1.00000000
 TOTAL ATOMIC CHARGES:
   5.9822374   5.9614531   5.9714044   5.9795790   5.9389139   5.9842066
   6.0611012   6.0570070   6.0022939   6.0214015   6.0741462   6.0005628
   5.9700912   6.0172799   5.9783218
 TTTTTTTTTTTTTTTTTTTTTTTTTTTTTT MOQGAD      TELAPSE       30.70 TCPU       29.62
 TTTTTTTTTTTTTTTTTTTTTTTTTTTTTT SHELLXN     TELAPSE       31.33 TCPU       30.25
 TTTTTTTTTTTTTTTTTTTTTTTTTTTTTT MONMO3      TELAPSE       31.59 TCPU       30.51
 NUMERICALLY INTEGRATED DENSITY     89.9998229656
 TTTTTTTTTTTTTTTTTTTTTTTTTTTTTT NUMDFT      TELAPSE       31.85 TCPU       30.76
 CYC  19 ETOT(AU) -5.703668186966E+02 DETOT  5.26E-10 tst  4.12E-12 PX  2.92E-06
 TTTTTTTTTTTTTTTTTTTTTTTTTTTTTT DIIS        TELAPSE       31.87 TCPU       30.79
 DIIS TEST: 0.15989E-09 AT SCF   CYCLE  19 - DIIS ACTIVE - HISTORY:    18 CYCLES
 TTTTTTTTTTTTTTTTTTTTTTTTTTTTTT FDIK        TELAPSE       32.05 TCPU       30.97
 POSSIBLY CONDUCTING STATE - EFERMI(AU) -1.7715595E-01 (RES. CHARGE  4.00E-11;IT.  4)
 TTTTTTTTTTTTTTTTTTTTTTTTTTTTTT PDIG        TELAPSE       32.14 TCPU       31.06
 CHARGE NORMALIZATION FACTOR   1.00000000
 TOTAL ATOMIC CHARGES:
   5.9822409   5.9614557   5.9714024   5.9795806   5.9389123   5.9842056
   6.0611004   6.0570115   6.0022904   6.0214000   6.0741502   6.0005634
   5.9700923   6.0172768   5.9783174
 TTTTTTTTTTTTTTTTTTTTTTTTTTTTTT MOQGAD      TELAPSE       32.14 TCPU       31.06
 TTTTTTTTTTTTTTTTTTTTTTTTTTTTTT SHELLXN     TELAPSE       32.77 TCPU       31.68
 +++ ENERGIES IN A.U. +++
 ::: EXT EL-POLE                                  -8.0316819116989E+02
 ::: EXT EL-SPHEROPOLE                             6.2072127794052E+00
 ::: BIELET ZONE E-E                               1.1946019623268E+03
 ::: TOTAL E-E                                     3.9764098393628E+02
 ::: TOTAL E-N + N-E                              -1.5744503710423E+03
 ::: TOTAL N-N                                     1.1926402148987E+02
 ::: KINETIC ENERGY                                5.6733744364002E+02
 ::: PSEUDO TOTAL   ENERGY                        -4.9020792197613E+02
 ::: VIRIAL COEFFICIENT                            1.0729325891556E+00
 TTTTTTTTTTTTTTTTTTTTTTTTTTTTTT MONMO3      TELAPSE       33.03 TCPU       31.94
 NUMERICALLY INTEGRATED DENSITY     89.9998229656
 TTTTTTTTTTTTTTTTTTTTTTTTTTTTTT NUMDFT      TELAPSE       33.37 TCPU       32.29
 CYC  20 ETOT(AU) -5.703668187000E+02 DETOT -3.45E-09 tst  3.54E-13 PX  2.92E-06

 == SCF ENDED - CONVERGENCE ON ENERGY      E(AU) -5.7036681870001E+02 CYCLES  20


 ENERGY EXPRESSION=HARTREE+FOCK EXCH*0.00000+(PBE        EXCH)*1.00000+PBE        CORR


 TOTAL ENERGY(DFT)(AU)( 20) -5.7036681870001E+02 DE-3.4E-09 tester 3.5E-13
 TTTTTTTTTTTTTTTTTTTTTTTTTTTTTT EDFT        TELAPSE       33.38 TCPU       32.30

 *******************************************************************************
 *                             FORCE CALCULATION                               *
 *******************************************************************************

 TTTTTTTTTTTTTTTTTTTTTTTTTTTTTT NUMDFG      TELAPSE       34.02 TCPU       32.93
 INFORMATION **** EXCPOG **** EXCH. BIPO BUFFER LENGTH (WORDS) =           0
 INFORMATION **** GENPOG **** BIPO BUFFER LENGTH (WORDS) =     1106000
 TTTTTTTTTTTTTTTTTTTTTTTTTTTTTT SHELXG      TELAPSE       36.10 TCPU       35.01

 CARTESIAN FORCES IN HARTREE/BOHR (ANALYTICAL)
   ATOM                     X                   Y                   Z
   1   6            -2.330377807841E-02 -1.511222523953E-02 -9.335192716420E-09
   2   6             3.109398929743E-03  1.328249600018E-02 -8.200935108868E-09
   3   6            -2.489726561969E-02 -7.322195608553E-03 -4.183800497732E-09
   4   6            -1.158367646764E-02  4.891526184834E-03 -7.415546972833E-09
   5   6             3.359301572906E-02 -1.165930680980E-02  4.435017401660E-09
   6   6             2.431199510808E-03 -2.264783602901E-02  1.575281398549E-08
   7   6            -6.909201804102E-03 -1.451410150118E-02  7.288348226757E-09
   8   6             1.242119681991E-02  1.605942244916E-02  1.185803646452E-08
   9   6             2.661716674487E-02 -5.590634353552E-03  1.263144891420E-08
  10   6            -1.278879351265E-02  4.684079448253E-04  9.305939495104E-09
  11   6             2.687606425873E-03  1.172860327987E-02 -1.436226984447E-08
  12   6             7.475546194590E-03  2.540840079021E-02 -4.080043842290E-10
  13   6            -1.787695319760E-02 -1.756442440235E-03 -1.800190899794E-08
  14   6             2.263052171937E-02 -4.373460048781E-03  1.230077845681E-08
  15   6            -1.360598339402E-02  1.113734538163E-02 -1.166480617891E-08

 RESULTANT FORCE     1.186828413324E-13  6.063205493234E-14 -8.175686689487E-14

 SYMMETRY ALLOWED FORCES (ANALYTICAL) (DIRECTION, FORCE)

    1  1.4860720E-03    2 -2.8711326E-02    3 -9.6628368E-09    4 -1.0217398E-02
    5  7.6303578E-03    6 -9.2024770E-09    7 -7.0383632E-03    8 -2.7726159E-02
    9 -5.7586450E-09   10 -1.1746439E-02   11 -1.1720510E-02   12 -9.6357562E-09
   13  2.5856318E-02   14  1.9515263E-02   15  1.8735347E-09   16  2.2192625E-02
   17 -1.2663245E-02   18  1.4001276E-08   19  1.2387301E-02   20 -1.8424081E-02
   21  6.6759804E-09   22 -3.9271711E-03   23  1.3347764E-02   24  1.2455052E-08
   25  2.3383767E-02   26  1.6999417E-02   27  1.5217237E-08   28  3.3640081E-04
   29 -1.3951121E-02   30  1.4362364E-08   31 -1.8390615E-03   32  4.1930366E-03
   33 -8.8716306E-09   34 -1.3289697E-02   35  1.8099162E-02   36  4.6597720E-09
   37 -5.5069748E-03   38 -1.7929308E-02   39 -1.4958132E-08   40  2.2309929E-02
   41  1.6706339E-02   42  1.6946227E-08
 TTTTTTTTTTTTTTTTTTTTTTTTTTTTTT TOTGRA      TELAPSE       37.15 TCPU       36.07
 INFORMATION **** opta001 **** GEOMETRY OUTPUT FILE
 CLASSICAL MODEL (SCHLEGEL) USED AS INITIAL HESSIAN MATRIX
 REFERENCE GEOMETRY DEFINED

 MAX GRADIENT      0.028711  THRESHOLD              0.000450 CONVERGED NO
 RMS GRADIENT      0.013053  THRESHOLD              0.000300 CONVERGED NO

 GRADIENT NORM     0.084592  GRADIENT THRESHOLD     0.500000

 EIGENVALUES OF THE ESTIMATED HESSIAN
  0.3109E-03  0.8200E-03  0.2543E-02  0.2889E-02  0.6819E-02  0.7748E-02
  0.2116E-01  0.2414E-01  0.2458E-01  0.2696E-01  0.3223E-01  0.4048E-01
  0.4668E-01  0.5212E-01  0.6301E-01  0.7189E-01  0.8067E-01  0.1165    
  0.1310      0.1473      0.1606      0.1767      0.2297      0.3091    
  0.3391      0.3920      0.4623      0.4681      0.4890      0.5502    
  0.7944      0.8172       1.001       1.022       1.034       1.058    
   1.092       1.112       1.175       1.194       1.402       1.414    
 NEWTON STEP ( 0.1470007109E+01) EXCEEDS TRUST RADIUS ( 0.2000000000E+00)
 LEVEL SHIFT     0.3108892125E-03

 INITIAL TRUST RADIUS    0.2000000000E+00

 PREDICTED ENERGY CHANGE    -0.821E-02

 INITIAL DISPLACEMENTS
  0.005486 -0.039893 -0.003548 -0.015647 -0.002637 -0.000842 -0.054871  0.006428
 -0.006174 -0.000531  0.019433 -0.002291  0.037472  0.016197  0.008412  0.007003
 -0.025657  0.000507 -0.001615 -0.041649 -0.003707 -0.090172  0.062682 -0.014453
  0.009238  0.002461 -0.006548 -0.001613  0.029119 -0.001307 -0.076233  0.008759
 -0.005227 -0.046475  0.020717 -0.008207 -0.023544 -0.012941  0.000303  0.074126
  0.046691  0.014834
 TTTTTTTTTTTTTTTTTTTTTTTTTTTTTT OPTI        TELAPSE       37.17 TCPU       36.08

 OPTOPTOPTOPTOPTOPTOPTOPTOPTOPTOPTOPTOPTOPTOPTOPTOPTOPTOPTOPTOPTOPTOPTOPTOPTOPT

 - INFORMATION ON SCF MOVED TO SCFOUT.LOG
 GEOMETRY OPTIMIZATION INFORMATION STORED IN OPTINFO.DAT

 OPTOPTOPTOPTOPTOPTOPTOPTOPTOPTOPTOPTOPTOPTOPTOPTOPTOPTOPTOPTOPTOPTOPTOPTOPTOPT
 *******************************************************************************
 COORDINATE OPTIMIZATION - POINT    2
 *******************************************************************************
 LATTICE PARAMETERS (ANGSTROMS AND DEGREES) - BOHR = 0.5291772083 ANGSTROM
 PRIMITIVE CELL - CENTRING CODE 1/0 VOLUME=   412.228566 - DENSITY  0.725 g/cm^3
         A              B              C           ALPHA      BETA       GAMMA 
     7.40317242     7.40317242     8.68503800    90.000000  90.000000 120.000000
 *******************************************************************************
 ATOMS IN THE ASYMMETRIC UNIT   15 - ATOMS IN THE UNIT CELL:   15
     ATOM                 X/A                 Y/B                 Z/C    
 *******************************************************************************
      1 T   6 C     1.098994091199E-01 -1.142921514857E-01  2.997911482522E-01
      2 T   6 C     4.433483404622E-01  2.222396653113E-01  2.999654691868E-01
      3 T   6 C     4.411085739397E-01 -4.436913536809E-01  2.996572904803E-01
      4 T   6 C     4.456462289886E-01 -1.093745958190E-01  2.999152115122E-01
      5 T   6 C    -2.186272482811E-01  2.235581137221E-01  3.005496993262E-01
      6 T   6 C    -2.226671752964E-01 -1.131863041223E-01  3.000414393296E-01
      7 T   6 C     2.206364359177E-01  1.080271163630E-01  2.997958978307E-01
      8 T   6 C     2.189724465862E-01  4.498460849290E-01  2.992117461040E-01
      9 T   6 C     2.238029783617E-01 -2.221633351993E-01  2.997837811950E-01
     10 T   6 C    -4.426949122865E-01  1.131445729247E-01  3.001420151060E-01
     11 T   6 C    -4.484355434069E-01  4.444917530994E-01  2.999444279518E-01
     12 T   6 C    -4.448839302913E-01 -2.215023551992E-01  2.998674142809E-01
     13 T   6 C    -1.105120253154E-01  1.089843930244E-01  3.004598913396E-01
     14 T   6 C    -1.026876777012E-01  4.463509051360E-01  3.010763835600E-01
     15 T   6 C    -1.129059007966E-01 -2.257658423360E-01  2.997981845447E-01

 T = ATOM BELONGING TO THE ASYMMETRIC UNIT

 TOTAL ENERGY(DFT)(AU)( 17) -5.7037699109972E+02     DE (AU)   -1.017E-02

 UPDATED TRUST RADIUS     0.200E+00

 SYMMETRY ALLOWED FORCES  (COORDINATE, FORCE)

    1  6.6334050E-04    2 -2.4254313E-02    3  6.1539093E-05    4 -9.7310825E-03
    5  1.0006585E-02    6 -2.3286464E-05    7 -8.9233383E-03    8 -2.7158211E-02
    9  4.2749783E-04   10 -1.0182238E-02   11 -7.9581632E-03   12  1.2271395E-05
   13  2.0573041E-02   14  1.5152211E-02   15 -5.6490462E-04   16  2.0995723E-02
   17 -1.1453080E-02   18 -2.2958668E-04   19  7.7616447E-03   20 -2.4216386E-02
   21 -1.4298637E-04   22 -1.2685729E-02   23  1.9394526E-02   24 -2.6639613E-04
   25  2.1709112E-02   26  1.4457642E-02   27 -1.1970171E-04   28  8.8997379E-04
   29 -1.0349359E-02   30 -1.0097384E-04   31 -1.0249726E-02   32  9.9443352E-03
   33 -2.1210675E-04   34 -1.3507782E-02   35  2.1211981E-02   36 -3.0342910E-04
   37 -5.7475819E-03   38 -1.3223301E-02   39  2.2561166E-04   40  2.9717354E-02
   41  1.6188127E-02   42  2.5030979E-04

 GRADIENT NORM     0.084587  GRADIENT THRESHOLD     0.500000

 EIGENVALUES OF THE ESTIMATED HESSIAN
 -0.8970E-01  0.3120E-03  0.8200E-03  0.2543E-02  0.2889E-02  0.6813E-02
  0.7748E-02  0.2116E-01  0.2412E-01  0.2692E-01  0.3216E-01  0.4042E-01
  0.4667E-01  0.5212E-01  0.5630E-01  0.6301E-01  0.7922E-01  0.1157    
  0.1301      0.1422      0.1517      0.1767      0.2293      0.2971    
  0.3391      0.3877      0.4607      0.4641      0.4861      0.5452    
  0.7890      0.8002      0.9512       1.018       1.027       1.050    
   1.088       1.103       1.162       1.193       1.394       1.414    
 NEWTON STEP ( 0.1019803903E+01) EXCEEDS TRUST RADIUS ( 0.2000000000E+00)
 LEVEL SHIFT    -0.3212224948E+00

 PREDICTED ENERGY CHANGE    -0.141E-01

 MAX GRADIENT      0.029717  THRESHOLD              0.000450 CONVERGED NO
 RMS GRADIENT      0.013052  THRESHOLD              0.000300 CONVERGED NO
 MAX DISPLAC.      0.084862  THRESHOLD              0.001800 CONVERGED NO
 RMS DISPLAC.      0.030861  THRESHOLD              0.001200 CONVERGED NO
 TTTTTTTTTTTTTTTTTTTTTTTTTTTTTT OPTI        TELAPSE       68.86 TCPU       67.50
 *******************************************************************************
 COORDINATE OPTIMIZATION - POINT    3
 *******************************************************************************
 LATTICE PARAMETERS (ANGSTROMS AND DEGREES) - BOHR = 0.5291772083 ANGSTROM
 PRIMITIVE CELL - CENTRING CODE 1/0 VOLUME=   412.228566 - DENSITY  0.725 g/cm^3
         A              B              C           ALPHA      BETA       GAMMA 
     7.40317242     7.40317242     8.68503800    90.000000  90.000000 120.000000
 *******************************************************************************
 ATOMS IN THE ASYMMETRIC UNIT   15 - ATOMS IN THE UNIT CELL:   15
     ATOM                 X/A                 Y/B                 Z/C    
 *******************************************************************************
      1 T   6 C     1.079091522850E-01 -1.184712906467E-01  2.998028595249E-01
      2 T   6 C     4.425632700169E-01  2.233741298983E-01  2.999562946913E-01
      3 T   6 C     4.379408375889E-01 -4.443548195691E-01  2.997880770239E-01
      4 T   6 C     4.461881668444E-01 -1.080028021087E-01  2.999066204841E-01
      5 T   6 C    -2.150332337581E-01  2.251568551062E-01  3.003671557392E-01
      6 T   6 C    -2.223729032672E-01 -1.150216553120E-01  2.999781873939E-01
      7 T   6 C     2.185416449813E-01  1.036663459247E-01  2.997683787908E-01
      8 T   6 C     2.169841290721E-01  4.558387865451E-01  2.991469639626E-01
      9 T   6 C     2.266786537443E-01 -2.210772078821E-01  2.997800542532E-01
     10 T   6 C    -4.418021095634E-01  1.144465310378E-01  3.001388533766E-01
     11 T   6 C    -4.510241933982E-01  4.461512698910E-01  2.999271088729E-01
     12 T   6 C    -4.451027046717E-01 -2.199551076703E-01  2.998408574614E-01
     13 T   6 C    -1.106194733231E-01  1.064608996059E-01  3.006067812186E-01
     14 T   6 C    -9.454938735489E-02  4.482414473559E-01  3.011953343572E-01
     15 T   6 C    -1.163018491957E-01 -2.297867155086E-01  2.997964728494E-01

 T = ATOM BELONGING TO THE ASYMMETRIC UNIT

 TOTAL ENERGY(DFT)(AU)( 20) -5.7039079075537E+02     DE (AU)   -1.380E-02

 UPDATED TRUST RADIUS     0.200E+00

 SYMMETRY ALLOWED FORCES  (COORDINATE, FORCE)

    1 -1.0008976E-03    2 -1.8519860E-02    3  8.2384821E-05    4 -8.4279442E-03
    5  6.5480565E-03    6  2.4954312E-05    7 -1.4137931E-02    8 -1.0681691E-02
    9 -2.2340672E-05   10 -3.5337410E-03   11  1.1007044E-03   12  4.8365685E-05
   13  1.5648832E-02   14  7.3605937E-03   15 -2.2847918E-04   16  9.4379228E-03
   17 -7.8120035E-03   18  2.4827929E-05   19  3.8943381E-03   20 -2.0481690E-02
   21 -4.5230861E-05   22 -2.7174862E-02   23  2.4829339E-02   24  2.8361377E-04
   25  9.1467985E-03   26  6.8768845E-03   27 -1.7821573E-04   28 -1.7749491E-03
   29  3.5951906E-03   30 -1.2510750E-04   31 -1.3070887E-02   32  1.0268796E-02
   33  4.6231923E-05   34 -1.2704861E-02   35  1.5164444E-02   36 -6.9731757E-05
   37 -8.4571131E-03   38 -5.0863454E-03   39 -8.4045898E-05   40  2.8510884E-02
   41  1.4471876E-02   42  1.6474236E-04

 GRADIENT NORM     0.070420  GRADIENT THRESHOLD     0.500000

 EIGENVALUES OF THE ESTIMATED HESSIAN
  0.5386E-04  0.4372E-03  0.8653E-03  0.2543E-02  0.2893E-02  0.6980E-02
  0.7766E-02  0.2121E-01  0.2423E-01  0.2731E-01  0.3251E-01  0.4064E-01
  0.4667E-01  0.5212E-01  0.6300E-01  0.7730E-01  0.1014      0.1312    
  0.1419      0.1546      0.1667      0.1767      0.2305      0.3243    
  0.3720      0.4138      0.4632      0.4713      0.5080      0.6109    
  0.8150      0.8790       1.006       1.040       1.068       1.079    
   1.100       1.117       1.193       1.375       1.414       27.24    
 NEWTON STEP ( 0.1241443031E+04) EXCEEDS TRUST RADIUS ( 0.2000000000E+00)
 LEVEL SHIFT    -0.3341159093E+00

 PREDICTED ENERGY CHANGE    -0.138E-01

 MAX GRADIENT      0.028511  THRESHOLD              0.000450 CONVERGED NO
 RMS GRADIENT      0.010866  THRESHOLD              0.000300 CONVERGED NO
 MAX DISPLAC.      0.083875  THRESHOLD              0.001800 CONVERGED NO
 RMS DISPLAC.      0.030861  THRESHOLD              0.001200 CONVERGED NO
 TTTTTTTTTTTTTTTTTTTTTTTTTTTTTT OPTI        TELAPSE      104.41 TCPU      102.68
 *******************************************************************************
 COORDINATE OPTIMIZATION - POINT    4
 *******************************************************************************
 LATTICE PARAMETERS (ANGSTROMS AND DEGREES) - BOHR = 0.5291772083 ANGSTROM
 PRIMITIVE CELL - CENTRING CODE 1/0 VOLUME=   412.228566 - DENSITY  0.725 g/cm^3
         A              B              C           ALPHA      BETA       GAMMA 
     7.40317242     7.40317242     8.68503800    90.000000  90.000000 120.000000
 *******************************************************************************
 ATOMS IN THE ASYMMETRIC UNIT   15 - ATOMS IN THE UNIT CELL:   15
     ATOM                 X/A                 Y/B                 Z/C    
 *******************************************************************************
      1 T   6 C     1.058655845065E-01 -1.225371423195E-01  2.998149579472E-01
      2 T   6 C     4.419662064536E-01  2.247059054198E-01  2.999578094886E-01
      3 T   6 C     4.347128966501E-01 -4.452844027345E-01  2.998077331933E-01
      4 T   6 C     4.466362323323E-01 -1.067693952588E-01  2.999103950067E-01
      5 T   6 C    -2.114425883763E-01  2.265779858921E-01  3.002960911587E-01
      6 T   6 C    -2.219604160155E-01 -1.167764142828E-01  2.999706297038E-01
      7 T   6 C     2.167198591944E-01  9.946665358964E-02  2.997578548758E-01
      8 T   6 C     2.147383464011E-01  4.623036731826E-01  2.991839735823E-01
      9 T   6 C     2.294471294730E-01 -2.199156074227E-01  2.997510730261E-01
     10 T   6 C    -4.409738647630E-01  1.156579662429E-01  3.001270672665E-01
     11 T   6 C    -4.529675529714E-01  4.479164166163E-01  2.999334267874E-01
     12 T   6 C    -4.452820470638E-01 -2.183930613073E-01  2.998284691471E-01
     13 T   6 C    -1.109591350633E-01  1.038570859526E-01  3.006258743802E-01
     14 T   6 C    -8.680114000844E-02  4.496097306814E-01  3.012438471025E-01
     15 T   6 C    -1.196995107487E-01 -2.337527275842E-01  2.997907973336E-01

 T = ATOM BELONGING TO THE ASYMMETRIC UNIT

 TOTAL ENERGY(DFT)(AU)( 18) -5.7040461593555E+02     DE (AU)   -1.383E-02

 UPDATED TRUST RADIUS     0.200E+00

 SYMMETRY ALLOWED FORCES  (COORDINATE, FORCE)

    1 -2.0849731E-03    2 -1.3276631E-02    3  6.7264150E-05    4 -6.4577189E-03
    5  2.5781548E-04    6  6.1248779E-06    7 -1.8868734E-02    8  6.0877291E-03
    9 -1.9869570E-04   10  3.5324719E-03   11  1.1356083E-02   12  5.1690937E-05
   13  1.0579553E-02   14 -1.0465502E-03   15 -7.4124387E-05   16 -3.6187160E-03
   17 -4.8936279E-03   18  2.3042491E-04   19  1.4664806E-04   20 -1.3464756E-02
   21  7.6005428E-05   22 -4.2744733E-02   23  2.9784304E-02   24  6.7240078E-04
   25 -3.6933879E-03   26 -2.2051123E-03   27 -2.6592156E-04   28 -4.8494680E-03
[...]
   8 C    1     2.3747     4.4875    4 C    0 0 0
   8 C    1     2.4354     4.6022   12 C    0 0 0
   8 C    1     2.5242     4.7700    1 C    0 0 0

   9 C    1     1.4326     2.7072    4 C    0 0 0
   9 C    1     1.4345     2.7107    8 C    0 0 0
   9 C    1     1.4376     2.7167    1 C    0 0 0
   9 C    1     2.3342     4.4110   12 C    0 0 0
   9 C    1     2.3679     4.4747   14 C   -1 0 0
   9 C    1     2.4356     4.6026    3 C    0 0 0

  10 C    1     1.4045     2.6542    4 C    0-1 0
  10 C    1     1.6007     3.0248    2 C    0 0 0
  10 C    1     1.6009     3.0253    5 C    0 0 0
  10 C    1     2.5217     4.7652    9 C    0-1 0
  10 C    1     2.5217     4.7654   12 C    0-1 0
  10 C    1     2.6532     5.0137   11 C    0 0 0

  11 C    1     1.3499     2.5509    3 C    0 0 0
  11 C    1     1.4044     2.6538    2 C    0 0 0
  11 C    1     2.3677     4.4744   12 C    0 0 0
  11 C    1     2.4149     4.5634    7 C    0 0 0
  11 C    1     2.6532     5.0137   10 C    0 0 0
  11 C    1     2.6712     5.0478   15 C    0 0 0

  12 C    1     1.4326     2.7073    4 C    0 0 0
  12 C    1     1.4343     2.7104    3 C    0 0 0
  12 C    1     1.4377     2.7169    6 C    0 0 0
  12 C    1     2.3342     4.4110    9 C    0 0 0
  12 C    1     2.3677     4.4744   11 C    0 0 0
  12 C    1     2.4354     4.6022    8 C    0 0 0

  13 C    1     1.4271     2.6968    6 C    0-1 0
  13 C    1     1.4941     2.8235    5 C    0 0 0
  13 C    1     1.9963     3.7724    7 C    1 0 0
  13 C    1     2.4143     4.5623   14 C    0 0 0
  13 C    1     2.4331     4.5978   15 C    0-1 0
  13 C    1     2.4384     4.6079   12 C    0-1 0

  14 C    1     1.3497     2.5505    8 C    1 0 0
  14 C    1     1.4043     2.6537    5 C    0 0 0
  14 C    1     2.3679     4.4747    9 C    1 0 0
  14 C    1     2.4143     4.5623   13 C    0 0 0
  14 C    1     2.6534     5.0143   10 C    0 0 0
  14 C    1     2.6720     5.0494   15 C    0 0 0

  15 C    1     1.4262     2.6951    6 C    0 0 0
  15 C    1     1.4264     2.6956    1 C    1 0 0
  15 C    1     2.4331     4.5978   13 C    0 1 0
  15 C    1     2.4331     4.5979    7 C    1 1 0
  15 C    1     2.5552     4.8286   12 C    0 0 0
  15 C    1     2.5554     4.8290    9 C    1 0 0


 FINAL OPTIMIZED GEOMETRY - DIMENSIONALITY OF THE SYSTEM      3
 (NON PERIODIC DIRECTION: LATTICE PARAMETER FORMALLY SET TO 500)
 *******************************************************************************
 LATTICE PARAMETERS (ANGSTROMS AND DEGREES) - BOHR = 0.5291772083 ANGSTROM
 PRIMITIVE CELL - CENTRING CODE 1/0 VOLUME=   412.228566 - DENSITY  0.725 g/cm^3
         A              B              C           ALPHA      BETA       GAMMA 
     7.40317242     7.40317242     8.68503800    90.000000  90.000000 120.000000
 *******************************************************************************
 ATOMS IN THE ASYMMETRIC UNIT   15 - ATOMS IN THE UNIT CELL:   15
     ATOM                 X/A                 Y/B                 Z/C    
 *******************************************************************************
      1 T   6 C     9.996769214217E-02 -1.406743871556E-01  3.000232154175E-01
      2 T   6 C     4.175305402138E-01  2.190713517275E-01  3.000059063567E-01
      3 T   6 C     4.068886093877E-01 -4.326537397135E-01  2.999747488974E-01
      4 T   6 C     4.682906904708E-01 -8.562035943584E-02  2.999936898690E-01
      5 T   6 C    -1.762337666107E-01  2.190534391887E-01  2.999951645127E-01
      6 T   6 C    -2.184248138770E-01 -1.406753898491E-01  3.000122275965E-01
      7 T   6 C     1.859828915095E-01  8.011236168165E-02  3.000297753901E-01
      8 T   6 C     1.826837938078E-01 -4.326627642416E-01  2.999703491010E-01
      9 T   6 C     2.458512507736E-01 -2.152000702313E-01  2.999939311446E-01
     10 T   6 C    -4.221764209466E-01  1.334523536140E-01  2.999991737006E-01
     11 T   6 C     4.786308133839E-01  4.317883295417E-01  2.999872950481E-01
     12 T   6 C    -4.388579597130E-01 -2.152122537565E-01  2.999959213055E-01
     13 T   6 C    -8.366206529163E-02  8.012343045277E-02  3.000164691420E-01
     14 T   6 C    -2.457008590600E-02  4.317401564941E-01  2.999715935169E-01
     15 T   6 C    -1.219011693438E-01 -2.659757916495E-01  3.000305390014E-01

 T = ATOM BELONGING TO THE ASYMMETRIC UNIT
 INFORMATION **** fort.34 **** GEOMETRY OUTPUT FILE

 DIRECT LATTICE VECTORS CARTESIAN COMPONENTS (ANGSTROM)
          X                    Y                    Z
   0.370158621205E+01  -0.641133538787E+01   0.000000000000E+00
   0.370158621205E+01   0.641133538787E+01   0.000000000000E+00
   0.000000000000E+00   0.000000000000E+00   0.868503800000E+01


 CARTESIAN COORDINATES - PRIMITIVE CELL
 *******************************************************************************
 *      ATOM          X(ANGSTROM)         Y(ANGSTROM)         Z(ANGSTROM)
 *******************************************************************************
    1     6 C     3.550906871049E+00  4.868498309054E+00  2.605713026783E+00
    2     6 C     2.356436785774E+00 -1.272388418190E+00  2.605562696932E+00
    3     6 C     3.606214360883E+00  1.028747815461E+00  2.605292093214E+00
    4     6 C     5.118073433168E+00  2.860025871870E+00  2.605456596273E+00
    5     6 C     3.860086921668E+00 -3.877016536953E+00  2.605469403609E+00
    6     6 C     6.073932061241E+00  4.984776336560E-01  2.605617597140E+00
    7     6 C     9.849745203042E-01 -6.787714744177E-01  2.605770000395E+00
    8     6 C     2.776267501789E+00  2.466142224442E+00  2.605253880816E+00
    9     6 C     3.815044199328E+00  3.455380737885E+00  2.605458691760E+00
   10     6 C     2.632849185324E+00 -2.849012963009E+00  2.605504223558E+00
   11     6 C     3.369994946639E+00 -3.003228743129E-01  2.605401057010E+00
   12     6 C     4.982075140208E+00  1.433867628943E+00  2.605475976383E+00
   13     6 C     3.688487650120E+00 -5.361251642981E+00  2.605654435124E+00
   14     6 C     5.208761331297E+00 -3.485777382921E+00  2.605264688615E+00
   15     6 C     5.967412413314E+00 -9.237107244819E-01  2.605776632387E+00

 ****    1 SYMMOPS - TRANSLATORS IN FRACTIONAL UNITS
 **** MATRICES AND TRANSLATORS IN THE CRYSTALLOGRAPHIC REFERENCE FRAME
   V INV                    ROTATION MATRICES                   TRANSLATORS
   1   1  1.00  0.00  0.00  0.00  1.00  0.00  0.00  0.00  1.00  0.00  0.00  0.00
 TTTTTTTTTTTTTTTTTTTTTTTTTTTTTT END         TELAPSE     1406.68 TCPU     1389.08
 EEEEEEEEEE TERMINATION  DATE 01 11 2022 TIME 22:20:09.7
NODE    0 CPU TIME =      1389.084
    TOTAL CPU TIME =    178774.144
Note: The following floating-point exceptions are signalling: IEEE_UNDERFLOW_FLAG IEEE_DENORMAL
Note: The following floating-point exceptions are signalling: IEEE_UNDERFLOW_FLAG IEEE_DENORMAL
Note: The following floating-point exceptions are signalling: IEEE_UNDERFLOW_FLAG IEEE_DENORMAL
Note: The following floating-point exceptions are signalling: IEEE_UNDERFLOW_FLAG IEEE_DENORMAL
Note: The following floating-point exceptions are signalling: IEEE_UNDERFLOW_FLAG IEEE_DENORMAL
Note: The following floating-point exceptions are signalling: IEEE_UNDERFLOW_FLAG IEEE_DENORMAL
Note: The following floating-point exceptions are signalling: IEEE_UNDERFLOW_FLAG IEEE_DENORMAL
Note: The following floating-point exceptions are signalling: IEEE_UNDERFLOW_FLAG IEEE_DENORMAL
Note: The following floating-point exceptions are signalling: IEEE_UNDERFLOW_FLAG IEEE_DENORMAL
Note: The following floating-point exceptions are signalling: IEEE_UNDERFLOW_FLAG IEEE_DENORMAL
Note: The following floating-point exceptions are signalling: IEEE_UNDERFLOW_FLAG IEEE_DENORMAL
Note: The following floating-point exceptions are signalling: IEEE_UNDERFLOW_FLAG IEEE_DENORMAL
Note: The following floating-point exceptions are signalling: IEEE_UNDERFLOW_FLAG IEEE_DENORMAL
Note: The following floating-point exceptions are signalling: IEEE_UNDERFLOW_FLAG IEEE_DENORMAL
Note: The following floating-point exceptions are signalling: IEEE_UNDERFLOW_FLAG IEEE_DENORMAL
Note: The following floating-point exceptions are signalling: IEEE_UNDERFLOW_FLAG IEEE_DENORMAL
Note: The following floating-point exceptions are signalling: IEEE_UNDERFLOW_FLAG IEEE_DENORMAL
Note: The following floating-point exceptions are signalling: IEEE_UNDERFLOW_FLAG IEEE_DENORMAL
Note: The following floating-point exceptions are signalling: IEEE_UNDERFLOW_FLAG IEEE_DENORMAL
Note: The following floating-point exceptions are signalling: IEEE_UNDERFLOW_FLAG IEEE_DENORMAL
Note: The following floating-point exceptions are signalling: IEEE_UNDERFLOW_FLAG IEEE_DENORMAL
Note: The following floating-point exceptions are signalling: IEEE_UNDERFLOW_FLAG IEEE_DENORMAL
Note: The following floating-point exceptions are signalling: IEEE_UNDERFLOW_FLAG IEEE_DENORMAL
Note: The following floating-point exceptions are signalling: IEEE_UNDERFLOW_FLAG IEEE_DENORMAL
Note: The following floating-point exceptions are signalling: IEEE_UNDERFLOW_FLAG IEEE_DENORMAL
Note: The following floating-point exceptions are signalling: IEEE_UNDERFLOW_FLAG IEEE_DENORMAL
Note: The following floating-point exceptions are signalling: IEEE_UNDERFLOW_FLAG IEEE_DENORMAL
Note: The following floating-point exceptions are signalling: IEEE_UNDERFLOW_FLAG IEEE_DENORMAL
Note: The following floating-point exceptions are signalling: IEEE_UNDERFLOW_FLAG IEEE_DENORMAL
Note: The following floating-point exceptions are signalling: IEEE_UNDERFLOW_FLAG IEEE_DENORMAL
Note: The following floating-point exceptions are signalling: IEEE_UNDERFLOW_FLAG IEEE_DENORMAL
Note: The following floating-point exceptions are signalling: IEEE_UNDERFLOW_FLAG IEEE_DENORMAL
Note: The following floating-point exceptions are signalling: IEEE_UNDERFLOW_FLAG IEEE_DENORMAL
Note: The following floating-point exceptions are signalling: IEEE_UNDERFLOW_FLAG IEEE_DENORMAL
Note: The following floating-point exceptions are signalling: IEEE_UNDERFLOW_FLAG IEEE_DENORMAL
Note: The following floating-point exceptions are signalling: IEEE_UNDERFLOW_FLAG IEEE_DENORMAL
Note: The following floating-point exceptions are signalling: IEEE_UNDERFLOW_FLAG IEEE_DENORMAL
Note: The following floating-point exceptions are signalling: IEEE_UNDERFLOW_FLAG IEEE_DENORMAL
Note: The following floating-point exceptions are signalling: IEEE_UNDERFLOW_FLAG IEEE_DENORMAL
Note: The following floating-point exceptions are signalling: IEEE_UNDERFLOW_FLAG IEEE_DENORMAL
Note: The following floating-point exceptions are signalling: IEEE_UNDERFLOW_FLAG IEEE_DENORMAL
Note: The following floating-point exceptions are signalling: IEEE_UNDERFLOW_FLAG IEEE_DENORMAL
Note: The following floating-point exceptions are signalling: IEEE_UNDERFLOW_FLAG IEEE_DENORMAL
Note: The following floating-point exceptions are signalling: IEEE_UNDERFLOW_FLAG IEEE_DENORMAL
Note: The following floating-point exceptions are signalling: IEEE_UNDERFLOW_FLAG IEEE_DENORMAL
Note: The following floating-point exceptions are signalling: IEEE_UNDERFLOW_FLAG IEEE_DENORMAL
Note: The following floating-point exceptions are signalling: IEEE_UNDERFLOW_FLAG IEEE_DENORMAL
Note: The following floating-point exceptions are signalling: IEEE_UNDERFLOW_FLAG IEEE_DENORMAL
Note: The following floating-point exceptions are signalling: IEEE_UNDERFLOW_FLAG IEEE_DENORMAL
Note: The following floating-point exceptions are signalling: IEEE_UNDERFLOW_FLAG IEEE_DENORMAL
Note: The following floating-point exceptions are signalling: IEEE_UNDERFLOW_FLAG IEEE_DENORMAL
Note: The following floating-point exceptions are signalling: IEEE_UNDERFLOW_FLAG IEEE_DENORMAL
Note: The following floating-point exceptions are signalling: IEEE_UNDERFLOW_FLAG IEEE_DENORMAL
Note: The following floating-point exceptions are signalling: IEEE_UNDERFLOW_FLAG IEEE_DENORMAL
Note: The following floating-point exceptions are signalling: IEEE_UNDERFLOW_FLAG IEEE_DENORMAL
Note: The following floating-point exceptions are signalling: IEEE_UNDERFLOW_FLAG IEEE_DENORMAL
Note: The following floating-point exceptions are signalling: IEEE_UNDERFLOW_FLAG IEEE_DENORMAL
Note: The following floating-point exceptions are signalling: IEEE_UNDERFLOW_FLAG IEEE_DENORMAL
Note: The following floating-point exceptions are signalling: IEEE_UNDERFLOW_FLAG IEEE_DENORMAL
Note: The following floating-point exceptions are signalling: IEEE_UNDERFLOW_FLAG IEEE_DENORMAL
Note: The following floating-point exceptions are signalling: IEEE_UNDERFLOW_FLAG IEEE_DENORMAL
Note: The following floating-point exceptions are signalling: IEEE_UNDERFLOW_FLAG IEEE_DENORMAL
Note: The following floating-point exceptions are signalling: IEEE_UNDERFLOW_FLAG IEEE_DENORMAL
Note: The following floating-point exceptions are signalling: IEEE_UNDERFLOW_FLAG IEEE_DENORMAL
Note: The following floating-point exceptions are signalling: IEEE_UNDERFLOW_FLAG IEEE_DENORMAL
Note: The following floating-point exceptions are signalling: IEEE_UNDERFLOW_FLAG IEEE_DENORMAL
Note: The following floating-point exceptions are signalling: IEEE_UNDERFLOW_FLAG IEEE_DENORMAL
Note: The following floating-point exceptions are signalling: IEEE_UNDERFLOW_FLAG IEEE_DENORMAL
Note: The following floating-point exceptions are signalling: IEEE_UNDERFLOW_FLAG IEEE_DENORMAL
Note: The following floating-point exceptions are signalling: IEEE_UNDERFLOW_FLAG IEEE_DENORMAL
Note: The following floating-point exceptions are signalling: IEEE_UNDERFLOW_FLAG IEEE_DENORMAL
Note: The following floating-point exceptions are signalling: IEEE_UNDERFLOW_FLAG IEEE_DENORMAL
Note: The following floating-point exceptions are signalling: IEEE_UNDERFLOW_FLAG IEEE_DENORMAL
Note: The following floating-point exceptions are signalling: IEEE_UNDERFLOW_FLAG IEEE_DENORMAL
Note: The following floating-point exceptions are signalling: IEEE_UNDERFLOW_FLAG IEEE_DENORMAL
Note: The following floating-point exceptions are signalling: IEEE_UNDERFLOW_FLAG IEEE_DENORMAL
Note: The following floating-point exceptions are signalling: IEEE_UNDERFLOW_FLAG IEEE_DENORMAL
Note: The following floating-point exceptions are signalling: IEEE_UNDERFLOW_FLAG IEEE_DENORMAL
Note: The following floating-point exceptions are signalling: IEEE_UNDERFLOW_FLAG IEEE_DENORMAL
Note: The following floating-point exceptions are signalling: IEEE_UNDERFLOW_FLAG IEEE_DENORMAL
Note: The following floating-point exceptions are signalling: IEEE_UNDERFLOW_FLAG IEEE_DENORMAL
Note: The following floating-point exceptions are signalling: IEEE_UNDERFLOW_FLAG IEEE_DENORMAL
Note: The following floating-point exceptions are signalling: IEEE_UNDERFLOW_FLAG IEEE_DENORMAL
Note: The following floating-point exceptions are signalling: IEEE_UNDERFLOW_FLAG IEEE_DENORMAL
Note: The following floating-point exceptions are signalling: IEEE_UNDERFLOW_FLAG IEEE_DENORMAL
Note: The following floating-point exceptions are signalling: IEEE_UNDERFLOW_FLAG IEEE_DENORMAL
Note: The following floating-point exceptions are signalling: IEEE_UNDERFLOW_FLAG IEEE_DENORMAL
Note: The following floating-point exceptions are signalling: IEEE_UNDERFLOW_FLAG IEEE_DENORMAL
Note: The following floating-point exceptions are signalling: IEEE_UNDERFLOW_FLAG IEEE_DENORMAL
Note: The following floating-point exceptions are signalling: IEEE_UNDERFLOW_FLAG IEEE_DENORMAL
Note: The following floating-point exceptions are signalling: IEEE_UNDERFLOW_FLAG IEEE_DENORMAL
Note: The following floating-point exceptions are signalling: IEEE_UNDERFLOW_FLAG IEEE_DENORMAL
Note: The following floating-point exceptions are signalling: IEEE_UNDERFLOW_FLAG IEEE_DENORMAL
Note: The following floating-point exceptions are signalling: IEEE_UNDERFLOW_FLAG IEEE_DENORMAL
Note: The following floating-point exceptions are signalling: IEEE_UNDERFLOW_FLAG IEEE_DENORMAL
Note: The following floating-point exceptions are signalling: IEEE_UNDERFLOW_FLAG IEEE_DENORMAL
Note: The following floating-point exceptions are signalling: IEEE_UNDERFLOW_FLAG IEEE_DENORMAL
Note: The following floating-point exceptions are signalling: IEEE_UNDERFLOW_FLAG IEEE_DENORMAL
Note: The following floating-point exceptions are signalling: IEEE_UNDERFLOW_FLAG IEEE_DENORMAL
Note: The following floating-point exceptions are signalling: IEEE_UNDERFLOW_FLAG IEEE_DENORMAL
Note: The following floating-point exceptions are signalling: IEEE_UNDERFLOW_FLAG IEEE_DENORMAL
Note: The following floating-point exceptions are signalling: IEEE_UNDERFLOW_FLAG IEEE_DENORMAL
Note: The following floating-point exceptions are signalling: IEEE_UNDERFLOW_FLAG IEEE_DENORMAL
Note: The following floating-point exceptions are signalling: IEEE_UNDERFLOW_FLAG IEEE_DENORMAL
Note: The following floating-point exceptions are signalling: IEEE_UNDERFLOW_FLAG IEEE_DENORMAL
Note: The following floating-point exceptions are signalling: IEEE_UNDERFLOW_FLAG IEEE_DENORMAL
Note: The following floating-point exceptions are signalling: IEEE_UNDERFLOW_FLAG IEEE_DENORMAL
Note: The following floating-point exceptions are signalling: IEEE_UNDERFLOW_FLAG IEEE_DENORMAL
Note: The following floating-point exceptions are signalling: IEEE_UNDERFLOW_FLAG IEEE_DENORMAL
Note: The following floating-point exceptions are signalling: IEEE_UNDERFLOW_FLAG IEEE_DENORMAL
Note: The following floating-point exceptions are signalling: IEEE_UNDERFLOW_FLAG IEEE_DENORMAL
Note: The following floating-point exceptions are signalling: IEEE_UNDERFLOW_FLAG IEEE_DENORMAL
Note: The following floating-point exceptions are signalling: IEEE_UNDERFLOW_FLAG IEEE_DENORMAL
Note: The following floating-point exceptions are signalling: IEEE_UNDERFLOW_FLAG IEEE_DENORMAL
Note: The following floating-point exceptions are signalling: IEEE_UNDERFLOW_FLAG IEEE_DENORMAL
Note: The following floating-point exceptions are signalling: IEEE_UNDERFLOW_FLAG IEEE_DENORMAL
Note: The following floating-point exceptions are signalling: IEEE_UNDERFLOW_FLAG IEEE_DENORMAL
Note: The following floating-point exceptions are signalling: IEEE_UNDERFLOW_FLAG IEEE_DENORMAL
Note: The following floating-point exceptions are signalling: IEEE_UNDERFLOW_FLAG IEEE_DENORMAL
Note: The following floating-point exceptions are signalling: IEEE_UNDERFLOW_FLAG IEEE_DENORMAL
Note: The following floating-point exceptions are signalling: IEEE_UNDERFLOW_FLAG IEEE_DENORMAL
Note: The following floating-point exceptions are signalling: IEEE_UNDERFLOW_FLAG IEEE_DENORMAL
Note: The following floating-point exceptions are signalling: IEEE_UNDERFLOW_FLAG IEEE_DENORMAL
Note: The following floating-point exceptions are signalling: IEEE_UNDERFLOW_FLAG IEEE_DENORMAL
Note: The following floating-point exceptions are signalling: IEEE_UNDERFLOW_FLAG IEEE_DENORMAL
Note: The following floating-point exceptions are signalling: IEEE_UNDERFLOW_FLAG IEEE_DENORMAL
Note: The following floating-point exceptions are signalling: IEEE_UNDERFLOW_FLAG IEEE_DENORMAL
Note: The following floating-point exceptions are signalling: IEEE_UNDERFLOW_FLAG IEEE_DENORMAL
end_date Tue Nov  1 22:20:10 GMT 2022
 
TEMPORARY          SAVED (in /mnt/lustre/a2fs-work2/work/e05/e05/bcamino/quantum_computing/test_model/optgeom)
fort.34            graphene_3v_H.gui 1492     Nov 1 22:20
fort.33            graphene_3v_H.xyz 52261    Nov 1 22:20
fort.9             graphene_3v_H.f9  1555240  Nov 1 22:20
fort.98            graphene_3v_H.f98 4047965  Nov 1 22:20
SCFOUT.LOG         graphene_3v_H.SCFLOG1137733  Nov 1 22:20
OPTINFO.DAT        graphene_3v_H.OPTINFO11906031 Nov 1 22:20
HESSOPT.DAT        graphene_3v_H.HESSOPT37485    Nov 1 22:20
opta001            opta002            
Disk usage:<du -m>
416	/mnt/lustre/a2fs-work2/work/e05/e05/bcamino/quantum_computing/test_model/optgeom/tmp_graphene_3v_H_
</du -m>
Filesystem                                          1K-blocks          Used     Available Use% Mounted on
10.253.102.2@o2ib1:10.253.102.3@o2ib1:/cls01097 3582178503216 1747856001344 1798100888956  50% /mnt/lustre/a2fs-work2
10.253.102.2@o2ib1:10.253.102.3@o2ib1:/cls01097 3582178503216 1747856001344 1798100888956  50% /mnt/lustre/a2fs-work2
