date:                Mon Oct 31 17:10:51 GMT 2022
hostname:            nid002533
system:              Linux nid002533 4.12.14-197.78_9.1.64-cray_shasta_c #1 SMP Wed Aug 25 14:56:40 UTC 2021 (4e2a900) x86_64 x86_64 x86_64 GNU/Linux
user:                bcamino
input:               /mnt/lustre/a2fs-work2/work/e05/e05/bcamino/quantum_computing/test_model/graphene_0v_0.d12
output:              /mnt/lustre/a2fs-work2/work/e05/e05/bcamino/quantum_computing/test_model/graphene_0v_0.out
executable script:   /work/e05/e05/bcamino/runCRYSTAL/Pcry_slurm
executable:          Pcrystal
Command:             srun --hint=nomultithread --distribution=block:block Pcrystal
Slurm JobID:         
temporary directory: /mnt/lustre/a2fs-work2/work/e05/e05/bcamino/quantum_computing/test_model/tmp_graphene_0v_0_      
input data /mnt/lustre/a2fs-work2/work/e05/e05/bcamino/quantum_computing/test_model/graphene_0v_0.d12
Final
EXTERNAL
SYMMREMO
END
6 8
0 0 6 2.0 1.0
  13575.349682      0.00022245814352
  2035.2333680      0.00172327382520
  463.22562359      0.00892557153140
  131.20019598      0.03572798450200
  42.853015891      0.11076259931000
  15.584185766      0.24295627626000
0 0 2 2.0 1.0
  6.2067138508      0.41440263448000
  2.5764896527      0.23744968655000
0 0 1 0.0 1.0
  0.4941102000      1.00000000000000
0 0 1 0.0 1.0
  0.1644071000      1.00000000000000
0 2 4 2.0 1.0
  34.697232244      0.00533336578050
  7.9582622826      0.03586410909200
  2.3780826883      0.14215873329000
  0.8143320818      0.34270471845000
0 2 1 0.0 1.0
  0.5662417100      1.00000000000000
0 2 1 0.0 1.0
  0.1973545000      1.00000000000000
0 3 1 0.0 1.0
  0.5791584200      1.00000000000000
99 0
ENDBS
DFT
PBE  
ENDDFT
TOLINTEG
8 8 8 8 16
SCFDIR
SHRINK
8 16  
MAXCYCLE
200
TOLDEE
9 
ENDSCF
input data /mnt/lustre/a2fs-work2/work/e05/e05/bcamino/quantum_computing/test_model/graphene_0v_0.gui
         128 PROCESSORS WORKING

         
 *******************************************************************************
 *                                                                             *
 *                               CRYSTAL17                                     *
 *                      public : 1.0.2 - March 1st, 2018 STFC/Archer2 build    *
 *                       HTTP://WWW.CRYSTAL.UNITO.IT                           *
 *                                                                             *
 *                              MAIN AUTHORS                                   *
 *                                                                             *
 *  R. DOVESI(1,11), V.R. SAUNDERS(2), C. ROETTI(1,11), R. ORLANDO(1,11),      *
 *  C.M. ZICOVICH-WILSON(1,3), F. PASCALE(4), B. CIVALLERI(1,11),              *
 *  K. DOLL(5), N.M. HARRISON(2,6), I.J. BUSH(7), Ph. D'ARCO(8),               *
 *  M. LLUNELL(9), M. CAUSA'(10), Y. NOEL(8), L. MASCHIO(1,11), A. ERBA(1,11)  *
 *  M. RE'RAT(14), S. CASASSA(1,11)                                            *
 *                                                                             *
 *        CONTRIBUTIONS TO THE CODE HAVE ALSO BEEN GIVEN BY                    *
 *                                                                             *
 *  M. FERRABONE(1,11), M. DE LA PIERRE(1,11), M. FERRERO(1,11),               *
 *  J. BAIMA(1,11), E. ALBANESE(1,11), M.F. PEINTINGER(12), R. BAST(13),       *
 *  B. KIRTMAN(15), V. LACIVITA(1,11), R. DEMICHELIS(1,16)                     *
 *  G. BRANDEBURG(17), S. SALUSTRO(1,11), G. SANSONE(1,11)                     *
 *  M.T. RUGGIERO(18)                                                          *
 *                                                                             *
 * (1) THEORETICAL CHEMISTRY GROUP - UNIVERSITA' DI TORINO - TORINO (ITALY)    *
 * (2) COMPUTATIONAL SCIENCE & ENGINEERING DEPARTMENT - STFC DARESBURY (UK)    *
 * (3) UNIVERSIDAD AUTONOMA DEL ESTADO DE MORELOS - CUERNAVACA (MEXICO)        *
 * (4) UNIVERSITE' DE LORRAINE - NANCY (FRANCE)                                *
 * (5) UNIVERSITAET STUTTGART- STUTTGART (GERMANY)                             *
 * (6) IMPERIAL COLLEGE - LONDON (UK)                                          *
 * (7) OXFORD E-RESEARCH CENTRE - OXFORD (UK)                                  *
 * (8) UPMC - SORBONNE UNIVERSITES - PARIS (FRANCE)                            *
 * (9) UNIVERSIDAD DE BARCELONA - BARCELONA (SPAIN)                            *
 *(10) UNIVERSITA' DI NAPOLI "FEDERICO II" - NAPOLI (ITALY)                    *
 *(11) NIS - NANOSTRUCTURED INTERFACES AND SURFACES - TORINO (ITALY)           *
 *(12) MPI FUER CHEMISCHE ENERGIEKONVERSION - MUELHEIM AN DER RUHR (GERMANY)   *
 *(13) UNIVERSITY OF TROMSO - TROMSO (NORWAY)                                  *
 *(14) UNIVERSITE' DE PAU ET DES PAYS DE L'ADOUR - PAU (FRANCE)                *
 *(15) UNIVERSITY OF CALIFORNIA SANTA BARBARA - SANTA BARBARA (USA)            *
 *(16) CURTIN UNIVERSITY - PERTH (AUSTRALIA)                                   *
 *(17) UNIVERSITY COLLEGE LONDON - LONDON (UK)                                 *
 *(18) CAMBRIDGE UNIVERSITY - CAMBRIDGE (UK)                                   *
 *                                                                             *
 *******************************************************************************
 EEEEEEEEEE STARTING  DATE 31 10 2022 TIME 17:10:57.7
 Final                                                                           

 GEOMETRY INPUT FROM EXTERNAL FILE (FORTRAN UNIT 34)
 2D - SLAB    

 *******************************************************************************
 LATTICE PARAMETERS  (ANGSTROMS AND DEGREES) - PRIMITIVE CELL
       A          B          C        ALPHA      BETA     GAMMA        VOLUME
    7.40317    7.40317  500.00000    90.00000  90.00000 120.00000     47.464221
 INFORMATION **** CHKGRP **** SPGR WITH NO INVERSION

 NUMBER OF IRREDUCIBLE ATOMS IN THE CELL:   18

 CARTESIAN COORDINATES (ANGSTROM) - IRREDUCIBLE ATOMS AND SYMMETRY RELATED

 AT.IRR.  AT  AT.N.          X                   Y                   Z
     1     1     6    1.233862070683E+00  7.123705986520E-01  2.605511400000E+00
     2     2     6    2.467724141366E+00  2.849482394607E+00  2.605511400000E+00
     3     3     6    3.701586212049E+00  4.986594190562E+00  2.605511400000E+00
     4     4     6    2.467724141366E+00 -1.424741197304E+00  2.605511400000E+00
     5     5     6    3.701586212049E+00  7.123705986520E-01  2.605511400000E+00
     6     6     6    4.935448282733E+00  2.849482394607E+00  2.605511400000E+00
     7     7     6    3.701586212049E+00 -3.561852993259E+00  2.605511400000E+00
     8     8     6    4.935448282733E+00 -1.424741197304E+00  2.605511400000E+00
     9     9     6    6.169310353416E+00  7.123705986520E-01  2.605511400000E+00
    10    10     6    1.233862070683E+00 -7.123705986520E-01  2.605511400000E+00
    11    11     6    2.467724141366E+00  1.424741197304E+00  2.605511400000E+00
    12    12     6    3.701586212049E+00  3.561852993259E+00  2.605511400000E+00
    13    13     6    2.467724141366E+00 -2.849482394607E+00  2.605511400000E+00
    14    14     6    3.701586212049E+00 -7.123705986520E-01  2.605511400000E+00
    15    15     6    4.935448282733E+00  1.424741197304E+00  2.605511400000E+00
    16    16     6    3.701586212049E+00 -4.986594190562E+00  2.605511400000E+00
    17    17     6    4.935448282733E+00 -2.849482394607E+00  2.605511400000E+00
    18    18     6    6.169310353416E+00 -7.123705986520E-01  2.605511400000E+00

 SLAB  GROUP  N.                      :    1
 NUMBER OF SYMMETRY OPERATORS         :    1
 *******************************************************************************
 LATTICE PARAMETERS (ANGSTROMS AND DEGREES) - BOHR = 0.5291772083 ANGSTROM
 PRIMITIVE CELL
         A              B              C           ALPHA      BETA       GAMMA 
     7.40317242     7.40317242   500.00000000    90.000000  90.000000 120.000000
 *******************************************************************************
 ATOMS IN THE ASYMMETRIC UNIT   18 - ATOMS IN THE UNIT CELL:   18
     ATOM                 X/A                 Y/B             Z(ANGSTROM)
 *******************************************************************************
      1 T   6 C     1.111111111111E-01  2.222222222222E-01  2.605511400000E+00
      2 T   6 C     1.111111111111E-01 -4.444444444445E-01  2.605511400000E+00
      3 T   6 C     1.111111111111E-01 -1.111111111111E-01  2.605511400000E+00
      4 T   6 C     4.444444444445E-01  2.222222222222E-01  2.605511400000E+00
      5 T   6 C     4.444444444444E-01 -4.444444444444E-01  2.605511400000E+00
      6 T   6 C     4.444444444446E-01 -1.111111111110E-01  2.605511400000E+00
      7 T   6 C    -2.222222222222E-01  2.222222222222E-01  2.605511400000E+00
      8 T   6 C    -2.222222222221E-01 -4.444444444443E-01  2.605511400000E+00
      9 T   6 C    -2.222222222221E-01 -1.111111111110E-01  2.605511400000E+00
     10 T   6 C     2.222222222222E-01  1.111111111111E-01  2.605511400000E+00
     11 T   6 C     2.222222222222E-01  4.444444444445E-01  2.605511400000E+00
     12 T   6 C     2.222222222222E-01 -2.222222222222E-01  2.605511400000E+00
     13 T   6 C    -4.444444444445E-01  1.111111111111E-01  2.605511400000E+00
     14 T   6 C    -4.444444444444E-01  4.444444444444E-01  2.605511400000E+00
     15 T   6 C    -4.444444444443E-01 -2.222222222221E-01  2.605511400000E+00
     16 T   6 C    -1.111111111111E-01  1.111111111111E-01  2.605511400000E+00
     17 T   6 C    -1.111111111110E-01  4.444444444446E-01  2.605511400000E+00
     18 T   6 C    -1.111111111110E-01 -2.222222222221E-01  2.605511400000E+00

 T = ATOM BELONGING TO THE ASYMMETRIC UNIT
 *******************************************************************************
 * GEOMETRY EDITING - INPUT COORDINATES ARE GIVEN IN ANGSTROM         
 *******************************************************************************

 USE OF SYMMETRY WILL BE SUBSEQUENTLY SUSPENDED

 GCALCO - MAX INDICES DIRECT LATTICE VECTOR    83    83     0
 NO.OF VECTORS CREATED 6999 STARS  503 RMAX   615.08149 BOHR

 GEOMETRY FOR WAVE FUNCTION - DIMENSIONALITY OF THE SYSTEM    2
 (NON PERIODIC DIRECTION: LATTICE PARAMETER FORMALLY SET TO 500)
 *******************************************************************************
 LATTICE PARAMETERS (ANGSTROMS AND DEGREES) - BOHR = 0.5291772083 ANGSTROM
 PRIMITIVE CELL
         A              B              C           ALPHA      BETA       GAMMA 
     7.40317242     7.40317242   500.00000000    90.000000  90.000000 120.000000
 *******************************************************************************
 ATOMS IN THE ASYMMETRIC UNIT   18 - ATOMS IN THE UNIT CELL:   18
     ATOM                 X/A                 Y/B             Z(ANGSTROM)
 *******************************************************************************
      1 T   6 C     1.111111111111E-01  2.222222222222E-01  2.605511400000E+00
      2 T   6 C     1.111111111111E-01 -4.444444444445E-01  2.605511400000E+00
      3 T   6 C     1.111111111111E-01 -1.111111111111E-01  2.605511400000E+00
      4 T   6 C     4.444444444445E-01  2.222222222222E-01  2.605511400000E+00
      5 T   6 C     4.444444444444E-01 -4.444444444444E-01  2.605511400000E+00
      6 T   6 C     4.444444444446E-01 -1.111111111110E-01  2.605511400000E+00
      7 T   6 C    -2.222222222222E-01  2.222222222222E-01  2.605511400000E+00
      8 T   6 C    -2.222222222221E-01 -4.444444444443E-01  2.605511400000E+00
      9 T   6 C    -2.222222222221E-01 -1.111111111110E-01  2.605511400000E+00
     10 T   6 C     2.222222222222E-01  1.111111111111E-01  2.605511400000E+00
     11 T   6 C     2.222222222222E-01  4.444444444445E-01  2.605511400000E+00
     12 T   6 C     2.222222222222E-01 -2.222222222222E-01  2.605511400000E+00
     13 T   6 C    -4.444444444445E-01  1.111111111111E-01  2.605511400000E+00
     14 T   6 C    -4.444444444444E-01  4.444444444444E-01  2.605511400000E+00
     15 T   6 C    -4.444444444443E-01 -2.222222222221E-01  2.605511400000E+00
     16 T   6 C    -1.111111111111E-01  1.111111111111E-01  2.605511400000E+00
     17 T   6 C    -1.111111111110E-01  4.444444444446E-01  2.605511400000E+00
     18 T   6 C    -1.111111111110E-01 -2.222222222221E-01  2.605511400000E+00

 T = ATOM BELONGING TO THE ASYMMETRIC UNIT

 ****    1 SYMMOPS - TRANSLATORS IN FRACTIONAL UNITS
 **** MATRICES AND TRANSLATORS IN THE CRYSTALLOGRAPHIC REFERENCE FRAME
   V INV                    ROTATION MATRICES                   TRANSLATORS
   1   1  1.00  0.00  0.00  0.00  1.00  0.00  0.00  0.00  1.00  0.00  0.00  0.00

 DIRECT LATTICE VECTORS CARTESIAN COMPONENTS (ANGSTROM)
          X                    Y                    Z
   0.370158621205E+01  -0.641133538787E+01   0.000000000000E+00
   0.370158621205E+01   0.641133538787E+01   0.000000000000E+00
   0.000000000000E+00   0.000000000000E+00   0.500000000000E+03


 CARTESIAN COORDINATES - PRIMITIVE CELL
 *******************************************************************************
 *      ATOM          X(ANGSTROM)         Y(ANGSTROM)         Z(ANGSTROM)
 *******************************************************************************
    1     6 C     1.233862070683E+00  7.123705986520E-01  2.605511400000E+00
    2     6 C     2.467724141366E+00  2.849482394607E+00  2.605511400000E+00
    3     6 C     3.701586212049E+00  4.986594190562E+00  2.605511400000E+00
    4     6 C     2.467724141366E+00 -1.424741197304E+00  2.605511400000E+00
    5     6 C     3.701586212049E+00  7.123705986520E-01  2.605511400000E+00
    6     6 C     4.935448282733E+00  2.849482394607E+00  2.605511400000E+00
    7     6 C     3.701586212049E+00 -3.561852993259E+00  2.605511400000E+00
    8     6 C     4.935448282733E+00 -1.424741197304E+00  2.605511400000E+00
    9     6 C     6.169310353416E+00  7.123705986520E-01  2.605511400000E+00
   10     6 C     1.233862070683E+00 -7.123705986520E-01  2.605511400000E+00
   11     6 C     2.467724141366E+00  1.424741197304E+00  2.605511400000E+00
   12     6 C     3.701586212049E+00  3.561852993259E+00  2.605511400000E+00
   13     6 C     2.467724141366E+00 -2.849482394607E+00  2.605511400000E+00
   14     6 C     3.701586212049E+00 -7.123705986520E-01  2.605511400000E+00
   15     6 C     4.935448282733E+00  1.424741197304E+00  2.605511400000E+00
   16     6 C     3.701586212049E+00 -4.986594190562E+00  2.605511400000E+00
   17     6 C     4.935448282733E+00 -2.849482394607E+00  2.605511400000E+00
   18     6 C     6.169310353416E+00 -7.123705986520E-01  2.605511400000E+00

 *******************************************************************************
 LOCAL ATOMIC FUNCTIONS BASIS SET
 *******************************************************************************
   ATOM   X(AU)   Y(AU)   Z(AU)  N. TYPE  EXPONENT  S COEF   P COEF   D/F/G COEF
 *******************************************************************************
   1 C    2.332   1.346   4.924
                                  1 S  
                                         1.358E+04 2.225E-04 0.000E+00 0.000E+00
                                         2.035E+03 1.723E-03 0.000E+00 0.000E+00
                                         4.632E+02 8.926E-03 0.000E+00 0.000E+00
                                         1.312E+02 3.573E-02 0.000E+00 0.000E+00
                                         4.285E+01 1.108E-01 0.000E+00 0.000E+00
                                         1.558E+01 2.430E-01 0.000E+00 0.000E+00
                                  2 S  
                                         6.207E+00 4.144E-01 0.000E+00 0.000E+00
                                         2.576E+00 2.374E-01 0.000E+00 0.000E+00
                                  3 S  
                                         4.941E-01 1.000E+00 0.000E+00 0.000E+00
                                  4 S  
                                         1.644E-01 1.000E+00 0.000E+00 0.000E+00
                           5-     7 P  
                                         3.470E+01 0.000E+00 5.333E-03 0.000E+00
                                         7.958E+00 0.000E+00 3.586E-02 0.000E+00
                                         2.378E+00 0.000E+00 1.422E-01 0.000E+00
                                         8.143E-01 0.000E+00 3.427E-01 0.000E+00
                           8-    10 P  
                                         5.662E-01 0.000E+00 1.000E+00 0.000E+00
                          11-    13 P  
                                         1.974E-01 0.000E+00 1.000E+00 0.000E+00
                          14-    18 D  
                                         5.792E-01 0.000E+00 0.000E+00 1.000E+00
   2 C    4.663   5.385   4.924
   3 C    6.995   9.423   4.924
   4 C    4.663  -2.692   4.924
   5 C    6.995   1.346   4.924
   6 C    9.327   5.385   4.924
   7 C    6.995  -6.731   4.924
   8 C    9.327  -2.692   4.924
   9 C   11.658   1.346   4.924
  10 C    2.332  -1.346   4.924
  11 C    4.663   2.692   4.924
  12 C    6.995   6.731   4.924
  13 C    4.663  -5.385   4.924
  14 C    6.995  -1.346   4.924
  15 C    9.327   2.692   4.924
  16 C    6.995  -9.423   4.924
  17 C    9.327  -5.385   4.924
  18 C   11.658  -1.346   4.924
 INFORMATION **** SET_MPP **** PCRYSTAL CALCULATION
 INFORMATION **** READM2 **** NEW DEFAULT: FOCK/KS MATRIX MIXING SET TO 30 %
 INFORMATION **** READM2 **** NEW DEFAULT: FULL DIRECT SCF MODE
 INFORMATION **** READM2 **** NEW DEFAULT: COULOMB BIPOLAR BUFFER SET TO 32 Mb
 INFORMATION **** READM2 **** NEW DEFAULT: EXCHANGE BIPOLAR BUFFER SET TO 32 Mb

 *******************************************************************************
 NEW DEFAULT: DFT INTEGRATION GRID INCREASED TO XLGRID
 NEW DEFAULT: DIIS ACCELERATOR ACTIVE
 USE KEYWORD NODIIS TO TURN IT OFF
 *******************************************************************************

 INFORMATION **** TOLINTEG **** COULOMB AND EXCHANGE SERIES TOLERANCES MODIFIED
 INFORMATION **** READM2 **** FULL DIRECT SCF (MONO AND BIEL INT) SELECTED
 INFORMATION **** MAXCYCLE **** MAX NUMBER OF SCF CYCLES SET TO         200
 INFORMATION **** TOLDEE **** SCF TOL ON TOTAL ENERGY SET TO           9
 *******************************************************************************
 N. OF ATOMS PER CELL        18  COULOMB OVERLAP TOL         (T1) 10**   -8
 NUMBER OF SHELLS           144  COULOMB PENETRATION TOL     (T2) 10**   -8
 NUMBER OF AO               324  EXCHANGE OVERLAP TOL        (T3) 10**   20
 N. OF ELECTRONS PER CELL   108  EXCHANGE PSEUDO OVP (F(G))  (T4) 10**   20
 CORE ELECTRONS PER CELL     36  EXCHANGE PSEUDO OVP (P(G))  (T5) 10**   20
 N. OF SYMMETRY OPERATORS     1  POLE ORDER IN MONO ZONE                  4
 *******************************************************************************
 TYPE OF CALCULATION :  RESTRICTED CLOSED SHELL
 KOHN-SHAM HAMILTONIAN

 (EXCHANGE)[CORRELATION] FUNCTIONAL:(PERDEW-BURKE-ERNZERHOF)[PERDEW-BURKE-ERNZERHOF]


 CAPPA:IS1  8;IS2  8;IS3  1; K PTS MONK NET  34; SYMMOPS:K SPACE   2;G SPACE   1

 *******************************************************************************
 MAX NUMBER OF SCF CYCLES     200  CONVERGENCE ON DELTAP        10**-19
 WEIGHT OF F(I) IN F(I+1)      30% CONVERGENCE ON ENERGY        10**- 9
 SHRINK. FACT.(MONKH.)    8  8  1  NUMBER OF K POINTS IN THE IBZ     34
 SHRINKING FACTOR(GILAT NET)   16  NUMBER OF K POINTS(GILAT NET)    130
 *******************************************************************************
 *** K POINTS COORDINATES (OBLIQUE COORDINATES IN UNITS OF IS =  8)
   1-R(  0  0  0)   2-C(  1  0  0)   3-C(  2  0  0)   4-C(  3  0  0)
   5-R(  4  0  0)   6-C(  0  1  0)   7-C(  1  1  0)   8-C(  2  1  0)
   9-C(  3  1  0)  10-C(  4  1  0)  11-C(  5  1  0)  12-C(  6  1  0)
  13-C(  7  1  0)  14-C(  0  2  0)  15-C(  1  2  0)  16-C(  2  2  0)
  17-C(  3  2  0)  18-C(  4  2  0)  19-C(  5  2  0)  20-C(  6  2  0)
  21-C(  7  2  0)  22-C(  0  3  0)  23-C(  1  3  0)  24-C(  2  3  0)
  25-C(  3  3  0)  26-C(  4  3  0)  27-C(  5  3  0)  28-C(  6  3  0)
  29-C(  7  3  0)  30-R(  0  4  0)  31-C(  1  4  0)  32-C(  2  4  0)
  33-C(  3  4  0)  34-R(  4  4  0)

 DIRECT LATTICE VECTORS COMPON. (A.U.)     RECIP. LATTICE VECTORS COMPON. (A.U.) 
        X            Y            Z              X            Y            Z
    6.9949842  -12.1156680    0.0000000      0.4491208   -0.2593000    0.0000000
    6.9949842   12.1156680    0.0000000      0.4491208    0.2593000   -0.0000000
    0.0000000    0.0000000  944.8630670     -0.0000000    0.0000000    0.0066498

 DISK SPACE FOR EIGENVECTORS (FTN 10)     6718464 REALS

 SYMMETRY ADAPTION OF THE BLOCH FUNCTIONS DISABLED
 TTTTTTTTTTTTTTTTTTTTTTTTTTTTTT gordsh1     TELAPSE        3.21 TCPU        1.32

 MATRIX SIZE: P(G)  159786, F(G)   80109, P(G) IRR   80451, F(G) IRR   80451
 MAX G-VECTOR INDEX FOR 1- AND 2-ELECTRON INTEGRALS  13

 TTTTTTTTTTTTTTTTTTTTTTTTTTTTTT INPUT       TELAPSE        3.25 TCPU        1.36

 NEIGHBORS OF THE NON-EQUIVALENT ATOMS

 N = NUMBER OF NEIGHBORS AT DISTANCE R
    ATOM  N     R/ANG      R/AU   NEIGHBORS (ATOM LABELS AND CELL INDICES)
   1 C    3     1.4247     2.6924   10 C    0 0 0   11 C    0 0 0   16 C   -1 0 0
   1 C    6     2.4677     4.6633    2 C    0 0 0    3 C    0-1 0    4 C    0 0 0
                                     5 C    0 0 0    7 C   -1 0 0    9 C   -1-1 0
   1 C    3     2.8495     5.3847   14 C    0 0 0   17 C   -1 0 0   18 C   -1-1 0
   1 C    6     3.7695     7.1233   12 C    0 0 0   12 C    0-1 0   13 C    0 0 0
                                    13 C   -1 0 0   15 C    0 0 0   15 C   -1-1 0
   1 C    6     4.2742     8.0771    6 C    0 0 0    6 C   -1-1 0    6 C    0-1 0
                                     8 C    0 0 0    8 C   -1-1 0    8 C   -1 0 0
   1 C    6     4.9354     9.3266    2 C    0-1 0    3 C    0 0 0    4 C   -1 0 0
                                     5 C   -1-1 0    7 C    0 0 0    9 C    0 0 0

   2 C    3     1.4247     2.6924   11 C    0 0 0   12 C    0 0 0   17 C   -1 0 0
   2 C    6     2.4677     4.6633    1 C    0 0 0    3 C    0 0 0    5 C    0 0 0
                                     6 C    0 0 0    7 C   -1 0 0    8 C   -1 0 0
   2 C    3     2.8495     5.3847   15 C    0 0 0   16 C   -1 0 0   18 C   -1 0 0
   2 C    6     3.7695     7.1233   10 C    0 0 0   10 C    0 1 0   13 C   -1 0 0
                                    13 C    0 1 0   14 C    0 0 0   14 C   -1 0 0
   2 C    6     4.2742     8.0771    4 C    0 0 0    4 C   -1 0 0    4 C    0 1 0
                                     9 C    0 0 0    9 C   -1-1 0    9 C   -1 0 0
   2 C    6     4.9354     9.3266    1 C    0 1 0    3 C    0-1 0    5 C   -1 0 0
                                     6 C   -1-1 0    7 C    0 1 0    8 C    0 0 0

   3 C    3     1.4247     2.6924   10 C    0 1 0   12 C    0 0 0   18 C   -1 0 0
   3 C    6     2.4677     4.6633    1 C    0 1 0    2 C    0 0 0    4 C    0 1 0
                                     6 C    0 0 0    8 C   -1 0 0    9 C   -1 0 0
   3 C    3     2.8495     5.3847   13 C    0 1 0   16 C   -1 1 0   17 C   -1 0 0
   3 C    6     3.7695     7.1233   11 C    0 0 0   11 C    0 1 0   14 C   -1 0 0
                                    14 C    0 1 0   15 C    0 0 0   15 C   -1 0 0
   3 C    6     4.2742     8.0771    5 C    0 0 0    5 C   -1 0 0    5 C    0 1 0
                                     7 C   -1 0 0    7 C    0 1 0    7 C   -1 1 0
   3 C    6     4.9354     9.3266    1 C    0 0 0    2 C    0 1 0    4 C   -1 0 0
                                     6 C   -1 0 0    8 C    0 1 0    9 C    0 0 0

   4 C    3     1.4247     2.6924   10 C    0 0 0   13 C    0 0 0   14 C    0 0 0
   4 C    6     2.4677     4.6633    1 C    0 0 0    3 C    0-1 0    5 C    0 0 0
                                     6 C    0-1 0    7 C    0 0 0    8 C    0 0 0
   4 C    3     2.8495     5.3847   11 C    0 0 0   12 C    0-1 0   17 C    0 0 0
   4 C    6     3.7695     7.1233   15 C    0 0 0   15 C    0-1 0   16 C    0 0 0
                                    16 C   -1 0 0   18 C    0 0 0   18 C   -1-1 0
   4 C    6     4.2742     8.0771    2 C    0 0 0    2 C    1 0 0    2 C    0-1 0
                                     9 C    0 0 0    9 C   -1-1 0    9 C    0-1 0
   4 C    6     4.9354     9.3266    1 C    1 0 0    3 C    1 0 0    5 C    0-1 0
                                     6 C    0 0 0    7 C   -1 0 0    8 C   -1-1 0

   5 C    3     1.4247     2.6924   11 C    0 0 0   14 C    0 0 0   15 C    0 0 0
   5 C    6     2.4677     4.6633    1 C    0 0 0    2 C    0 0 0    4 C    0 0 0
                                     6 C    0 0 0    8 C    0 0 0    9 C    0 0 0
   5 C    3     2.8495     5.3847   10 C    0 0 0   12 C    0 0 0   18 C    0 0 0
   5 C    6     3.7695     7.1233   13 C    0 0 0   13 C    0 1 0   16 C   -1 0 0
                                    16 C    0 1 0   17 C    0 0 0   17 C   -1 0 0
   5 C    6     4.2742     8.0771    3 C    0 0 0    3 C    1 0 0    3 C    0-1 0
                                     7 C    0 0 0    7 C   -1 0 0    7 C    0 1 0
   5 C    6     4.9354     9.3266    1 C    1 1 0    2 C    1 0 0    4 C    0 1 0
                                     6 C    0-1 0    8 C   -1 0 0    9 C   -1-1 0

   6 C    3     1.4247     2.6924   12 C    0 0 0   13 C    0 1 0   15 C    0 0 0
   6 C    6     2.4677     4.6633    2 C    0 0 0    3 C    0 0 0    4 C    0 1 0
                                     5 C    0 0 0    7 C    0 1 0    9 C    0 0 0
   6 C    3     2.8495     5.3847   10 C    0 1 0   11 C    0 0 0   16 C    0 1 0
   6 C    6     3.7695     7.1233   14 C    0 0 0   14 C    0 1 0   17 C   -1 0 0
                                    17 C    0 1 0   18 C    0 0 0   18 C   -1 0 0
   6 C    6     4.2742     8.0771    1 C    0 0 0    1 C    1 1 0    1 C    0 1 0
                                     8 C    0 0 0    8 C   -1 0 0    8 C    0 1 0
   6 C    6     4.9354     9.3266    2 C    1 1 0    3 C    1 0 0    4 C    0 0 0
                                     5 C    0 1 0    7 C   -1 0 0    9 C   -1 0 0

   7 C    3     1.4247     2.6924   13 C    0 0 0   16 C    0 0 0   17 C    0 0 0
   7 C    6     2.4677     4.6633    1 C    1 0 0    2 C    1 0 0    4 C    0 0 0
                                     6 C    0-1 0    8 C    0 0 0    9 C    0-1 0
   7 C    3     2.8495     5.3847   11 C    1 0 0   14 C    0 0 0   15 C    0-1 0
   7 C    6     3.7695     7.1233   10 C    0 0 0   10 C    1 0 0   12 C    1 0 0
                                    12 C    0-1 0   18 C    0 0 0   18 C    0-1 0
   7 C    6     4.2742     8.0771    3 C    1 0 0    3 C    0-1 0    3 C    1-1 0
                                     5 C    0 0 0    5 C    1 0 0    5 C    0-1 0
   7 C    6     4.9354     9.3266    1 C    0 0 0    2 C    0-1 0    4 C    1 0 0
                                     6 C    1 0 0    8 C    0-1 0    9 C    0 0 0

   8 C    3     1.4247     2.6924   14 C    0 0 0   17 C    0 0 0   18 C    0 0 0
   8 C    6     2.4677     4.6633    2 C    1 0 0    3 C    1 0 0    4 C    0 0 0
                                     5 C    0 0 0    7 C    0 0 0    9 C    0 0 0
   8 C    3     2.8495     5.3847   12 C    1 0 0   13 C    0 0 0   15 C    0 0 0
   8 C    6     3.7695     7.1233   10 C    0 0 0   10 C    1 1 0   11 C    0 0 0
                                    11 C    1 0 0   16 C    0 0 0   16 C    0 1 0
   8 C    6     4.2742     8.0771    1 C    0 0 0    1 C    1 1 0    1 C    1 0 0
                                     6 C    0 0 0    6 C    1 0 0    6 C    0-1 0
   8 C    6     4.9354     9.3266    2 C    0 0 0    3 C    0-1 0    4 C    1 1 0
                                     5 C    1 0 0    7 C    0 1 0    9 C    0-1 0

   9 C    3     1.4247     2.6924   15 C    0 0 0   16 C    0 1 0   18 C    0 0 0
   9 C    6     2.4677     4.6633    1 C    1 1 0    3 C    1 0 0    5 C    0 0 0
                                     6 C    0 0 0    7 C    0 1 0    8 C    0 0 0
   9 C    3     2.8495     5.3847   10 C    1 1 0   13 C    0 1 0   14 C    0 0 0
   9 C    6     3.7695     7.1233   11 C    0 0 0   11 C    1 1 0   12 C    0 0 0
                                    12 C    1 0 0   17 C    0 0 0   17 C    0 1 0
   9 C    6     4.2742     8.0771    2 C    0 0 0    2 C    1 1 0    2 C    1 0 0
                                     4 C    0 0 0    4 C    1 1 0    4 C    0 1 0
   9 C    6     4.9354     9.3266    1 C    0 0 0    3 C    0 0 0    5 C    1 1 0
                                     6 C    1 0 0    7 C    0 0 0    8 C    0 1 0

  10 C    3     1.4247     2.6924    1 C    0 0 0    3 C    0-1 0    4 C    0 0 0
  10 C    6     2.4677     4.6633   11 C    0 0 0   12 C    0-1 0   13 C    0 0 0
                                    14 C    0 0 0   16 C   -1 0 0   18 C   -1-1 0
  10 C    3     2.8495     5.3847    5 C    0 0 0    6 C    0-1 0    9 C   -1-1 0
  10 C    6     3.7695     7.1233    2 C    0 0 0    2 C    0-1 0    7 C    0 0 0
                                     7 C   -1 0 0    8 C    0 0 0    8 C   -1-1 0
  10 C    6     4.2742     8.0771   15 C    0 0 0   15 C   -1-1 0   15 C    0-1 0
                                    17 C    0 0 0   17 C   -1-1 0   17 C   -1 0 0
  10 C    6     4.9354     9.3266   11 C    0-1 0   12 C    0 0 0   13 C   -1 0 0
                                    14 C   -1-1 0   16 C    0 0 0   18 C    0 0 0

  11 C    3     1.4247     2.6924    1 C    0 0 0    2 C    0 0 0    5 C    0 0 0
  11 C    6     2.4677     4.6633   10 C    0 0 0   12 C    0 0 0   14 C    0 0 0
                                    15 C    0 0 0   16 C   -1 0 0   17 C   -1 0 0
  11 C    3     2.8495     5.3847    4 C    0 0 0    6 C    0 0 0    7 C   -1 0 0
  11 C    6     3.7695     7.1233    3 C    0 0 0    3 C    0-1 0    8 C    0 0 0
                                     8 C   -1 0 0    9 C    0 0 0    9 C   -1-1 0
  11 C    6     4.2742     8.0771   13 C    0 0 0   13 C   -1 0 0   13 C    0 1 0
                                    18 C    0 0 0   18 C   -1-1 0   18 C   -1 0 0
  11 C    6     4.9354     9.3266   10 C    0 1 0   12 C    0-1 0   14 C   -1 0 0
                                    15 C   -1-1 0   16 C    0 1 0   17 C    0 0 0

  12 C    3     1.4247     2.6924    2 C    0 0 0    3 C    0 0 0    6 C    0 0 0
  12 C    6     2.4677     4.6633   10 C    0 1 0   11 C    0 0 0   13 C    0 1 0
                                    15 C    0 0 0   17 C   -1 0 0   18 C   -1 0 0
  12 C    3     2.8495     5.3847    4 C    0 1 0    5 C    0 0 0    8 C   -1 0 0
  12 C    6     3.7695     7.1233    1 C    0 0 0    1 C    0 1 0    7 C   -1 0 0
                                     7 C    0 1 0    9 C    0 0 0    9 C   -1 0 0
  12 C    6     4.2742     8.0771   14 C    0 0 0   14 C   -1 0 0   14 C    0 1 0
                                    16 C   -1 0 0   16 C    0 1 0   16 C   -1 1 0
  12 C    6     4.9354     9.3266   10 C    0 0 0   11 C    0 1 0   13 C   -1 0 0
                                    15 C   -1 0 0   17 C    0 1 0   18 C    0 0 0

  13 C    3     1.4247     2.6924    4 C    0 0 0    6 C    0-1 0    7 C    0 0 0
  13 C    6     2.4677     4.6633   10 C    0 0 0   12 C    0-1 0   14 C    0 0 0
                                    15 C    0-1 0   16 C    0 0 0   17 C    0 0 0
  13 C    3     2.8495     5.3847    3 C    0-1 0    8 C    0 0 0    9 C    0-1 0
  13 C    6     3.7695     7.1233    1 C    0 0 0    1 C    1 0 0    2 C    1 0 0
                                     2 C    0-1 0    5 C    0 0 0    5 C    0-1 0
  13 C    6     4.2742     8.0771   11 C    0 0 0   11 C    1 0 0   11 C    0-1 0
                                    18 C    0 0 0   18 C   -1-1 0   18 C    0-1 0
  13 C    6     4.9354     9.3266   10 C    1 0 0   12 C    1 0 0   14 C    0-1 0
                                    15 C    0 0 0   16 C   -1 0 0   17 C   -1-1 0

  14 C    3     1.4247     2.6924    4 C    0 0 0    5 C    0 0 0    8 C    0 0 0
  14 C    6     2.4677     4.6633   10 C    0 0 0   11 C    0 0 0   13 C    0 0 0
                                    15 C    0 0 0   17 C    0 0 0   18 C    0 0 0
  14 C    3     2.8495     5.3847    1 C    0 0 0    7 C    0 0 0    9 C    0 0 0
  14 C    6     3.7695     7.1233    2 C    0 0 0    2 C    1 0 0    3 C    1 0 0
                                     3 C    0-1 0    6 C    0 0 0    6 C    0-1 0
  14 C    6     4.2742     8.0771   12 C    0 0 0   12 C    1 0 0   12 C    0-1 0
                                    16 C    0 0 0   16 C   -1 0 0   16 C    0 1 0
  14 C    6     4.9354     9.3266   10 C    1 1 0   11 C    1 0 0   13 C    0 1 0
                                    15 C    0-1 0   17 C   -1 0 0   18 C   -1-1 0

  15 C    3     1.4247     2.6924    5 C    0 0 0    6 C    0 0 0    9 C    0 0 0
  15 C    6     2.4677     4.6633   11 C    0 0 0   12 C    0 0 0   13 C    0 1 0
                                    14 C    0 0 0   16 C    0 1 0   18 C    0 0 0
  15 C    3     2.8495     5.3847    2 C    0 0 0    7 C    0 1 0    8 C    0 0 0
  15 C    6     3.7695     7.1233    1 C    0 0 0    1 C    1 1 0    3 C    0 0 0
                                     3 C    1 0 0    4 C    0 0 0    4 C    0 1 0
  15 C    6     4.2742     8.0771   10 C    0 0 0   10 C    1 1 0   10 C    0 1 0
                                    17 C    0 0 0   17 C   -1 0 0   17 C    0 1 0
  15 C    6     4.9354     9.3266   11 C    1 1 0   12 C    1 0 0   13 C    0 0 0
                                    14 C    0 1 0   16 C   -1 0 0   18 C   -1 0 0

  16 C    3     1.4247     2.6924    1 C    1 0 0    7 C    0 0 0    9 C    0-1 0
  16 C    6     2.4677     4.6633   10 C    1 0 0   11 C    1 0 0   13 C    0 0 0
                                    15 C    0-1 0   17 C    0 0 0   18 C    0-1 0
  16 C    3     2.8495     5.3847    2 C    1 0 0    3 C    1-1 0    6 C    0-1 0
  16 C    6     3.7695     7.1233    4 C    0 0 0    4 C    1 0 0    5 C    1 0 0
                                     5 C    0-1 0    8 C    0 0 0    8 C    0-1 0
  16 C    6     4.2742     8.0771   12 C    1 0 0   12 C    0-1 0   12 C    1-1 0
                                    14 C    0 0 0   14 C    1 0 0   14 C    0-1 0
  16 C    6     4.9354     9.3266   10 C    0 0 0   11 C    0-1 0   13 C    1 0 0
                                    15 C    1 0 0   17 C    0-1 0   18 C    0 0 0

  17 C    3     1.4247     2.6924    2 C    1 0 0    7 C    0 0 0    8 C    0 0 0
  17 C    6     2.4677     4.6633   11 C    1 0 0   12 C    1 0 0   13 C    0 0 0
                                    14 C    0 0 0   16 C    0 0 0   18 C    0 0 0
  17 C    3     2.8495     5.3847    1 C    1 0 0    3 C    1 0 0    4 C    0 0 0
  17 C    6     3.7695     7.1233    5 C    0 0 0    5 C    1 0 0    6 C    1 0 0
                                     6 C    0-1 0    9 C    0 0 0    9 C    0-1 0
  17 C    6     4.2742     8.0771   10 C    0 0 0   10 C    1 1 0   10 C    1 0 0
                                    15 C    0 0 0   15 C    1 0 0   15 C    0-1 0
  17 C    6     4.9354     9.3266   11 C    0 0 0   12 C    0-1 0   13 C    1 1 0
                                    14 C    1 0 0   16 C    0 1 0   18 C    0-1 0

  18 C    3     1.4247     2.6924    3 C    1 0 0    8 C    0 0 0    9 C    0 0 0
  18 C    6     2.4677     4.6633   10 C    1 1 0   12 C    1 0 0   14 C    0 0 0
                                    15 C    0 0 0   16 C    0 1 0   17 C    0 0 0
  18 C    3     2.8495     5.3847    1 C    1 1 0    2 C    1 0 0    5 C    0 0 0
  18 C    6     3.7695     7.1233    4 C    0 0 0    4 C    1 1 0    6 C    0 0 0
                                     6 C    1 0 0    7 C    0 0 0    7 C    0 1 0
  18 C    6     4.2742     8.0771   11 C    0 0 0   11 C    1 1 0   11 C    1 0 0
                                    13 C    0 0 0   13 C    1 1 0   13 C    0 1 0
  18 C    6     4.9354     9.3266   10 C    0 0 0   12 C    0 0 0   14 C    1 1 0
                                    15 C    1 0 0   16 C    0 0 0   17 C    0 1 0


 SYMMETRY ALLOWED INTERNAL DEGREE(S) OF FREEDOM:  51
 TTTTTTTTTTTTTTTTTTTTTTTTTTTTTT SYMM        TELAPSE        3.26 TCPU        1.36
 TTTTTTTTTTTTTTTTTTTTTTTTTTTTTT INT_SCREEN  TELAPSE        3.26 TCPU        1.37
 INFORMATION **** EXCBUF **** EXCH. BIPO BUFFER: WORDS USED =           0

 DFT PARAMETERS

     ATOM       ELECTRONS   NET CHARGE   R(ANGSTROM)
   1   6  C       6.0000      0.0000     0.77000000

 SIZE OF GRID=     584226
 TTTTTTTTTTTTTTTTTTTTTTTTTTTTTT MAKE_GRID2  TELAPSE        3.59 TCPU        1.70
 BECKE WEIGHT FUNCTION
 RADSAFE =     2.00
 TOLERANCES - DENSITY:10**- 6; POTENTIAL:10**- 9; GRID WGT:10**-14

 RADIAL INTEGRATION  - INTERVALS (POINTS,UPPER LIMIT):            1( 75,  4.0*R)

 ANGULAR INTEGRATION - INTERVALS (ACCURACY LEVEL [N. POINTS] UPPER LIMIT):
  1(  4[  86]   0.2)  2(  8[ 194]   0.5)  3( 12[ 350]   0.9)  4( 16[ 974]   3.5)
  5( 12[ 350]9999.0)
 TTTTTTTTTTTTTTTTTTTTTTTTTTTTTT INT_CALC    TELAPSE        3.60 TCPU        1.71
 EEEEEEEEEE INT_CALC TERMINATION  DATE 31 10 2022 TIME 17:10:58.4

 *******************************************************************************
 Final                                                                           
 CRYSTAL - SCF - TYPE OF CALCULATION :  RESTRICTED CLOSED SHELL
 *******************************************************************************

 CAPPA:IS1  8;IS2  8;IS3  1; K PTS MONK NET  34; SYMMOPS:K SPACE   2;G SPACE   1

 TTTTTTTTTTTTTTTTTTTTTTTTTTTTTT SDIK        TELAPSE        3.65 TCPU        1.75

 AAAAAAAAAAAAAAAAAAAAAAAAAAAAAAAAAAAAAAAAAAAAAAAAAAAAAAAAAAAAAAAAAAAAAAAAAAAAAAA
         ATOMIC WAVEFUNCTION(S)


 NUCLEAR CHARGE  6.0  SYMMETRY SPECIES            S    P
 N. ELECTRONS    6.0  NUMBER OF PRIMITIVE GTOS   10    6
                      NUMBER OF CONTRACTED GTOS   4    3
                      NUMBER OF CLOSED SHELLS     2    0
                      OPEN SHELL OCCUPATION       0    2

  ZNUC SCFIT  TOTAL HF ENERGY   KINETIC ENERGY   VIRIAL THEOREM ACCURACY
   6.0  10   -3.768111494E+01  3.771190961E+01 -1.999183423E+00  3.4E-06

 AAAAAAAAAAAAAAAAAAAAAAAAAAAAAAAAAAAAAAAAAAAAAAAAAAAAAAAAAAAAAAAAAAAAAAAAAAAAAAA

 CHARGE NORMALIZATION FACTOR   1.00000000
 TOTAL ATOMIC CHARGES:
   6.0000000   6.0000000   6.0000000   6.0000000   6.0000000   6.0000000
   6.0000000   6.0000000   6.0000000   6.0000000   6.0000000   6.0000000
   6.0000000   6.0000000   6.0000000   6.0000000   6.0000000   6.0000000
 TTTTTTTTTTTTTTTTTTTTTTTTTTTTTT MOQGAD      TELAPSE        4.04 TCPU        2.02
 TTTTTTTTTTTTTTTTTTTTTTTTTTTTTT SHELLXN     TELAPSE        5.27 TCPU        3.24
 TTTTTTTTTTTTTTTTTTTTTTTTTTTTTT MONMO3      TELAPSE        5.46 TCPU        3.43
 NUMERICALLY INTEGRATED DENSITY    107.9998062443
 TTTTTTTTTTTTTTTTTTTTTTTTTTTTTT NUMDFT      TELAPSE        5.69 TCPU        3.66
 CYC   0 ETOT(AU) -6.905155025456E+02 DETOT -6.91E+02 tst  0.00E+00 PX  1.00E+00
 TTTTTTTTTTTTTTTTTTTTTTTTTTTTTT DIIS        TELAPSE        5.70 TCPU        3.67
 TTTTTTTTTTTTTTTTTTTTTTTTTTTTTT FDIK        TELAPSE        5.79 TCPU        3.76
 POSSIBLY CONDUCTING STATE - EFERMI(AU) -2.3361323E-01 (RES. CHARGE  7.14E-07;IT. 21)
 TTTTTTTTTTTTTTTTTTTTTTTTTTTTTT PDIG        TELAPSE        5.82 TCPU        3.79
 CHARGE NORMALIZATION FACTOR   1.00000001
 TOTAL ATOMIC CHARGES:
   5.9999890   5.9999926   6.0000017   6.0000030   5.9999892   5.9999901
   5.9999880   6.0000054   5.9999888   5.9999994   6.0000222   6.0000046
   6.0000033   6.0000057   6.0000208   5.9999979   6.0000032   5.9999951
 TTTTTTTTTTTTTTTTTTTTTTTTTTTTTT MOQGAD      TELAPSE        5.82 TCPU        3.79
 TTTTTTTTTTTTTTTTTTTTTTTTTTTTTT SHELLXN     TELAPSE        7.25 TCPU        5.22
 TTTTTTTTTTTTTTTTTTTTTTTTTTTTTT MONMO3      TELAPSE        7.47 TCPU        5.44
 NUMERICALLY INTEGRATED DENSITY    107.9998739874
 TTTTTTTTTTTTTTTTTTTTTTTTTTTTTT NUMDFT      TELAPSE        7.99 TCPU        5.96
 CYC   1 ETOT(AU) -6.853253294737E+02 DETOT  5.19E+00 tst  0.00E+00 PX  1.00E+00
 TTTTTTTTTTTTTTTTTTTTTTTTTTTTTT DIIS        TELAPSE        8.00 TCPU        5.97
 DIIS TEST: 0.48832E+00 AT SCF   CYCLE   1 - MIX   30 %
 TTTTTTTTTTTTTTTTTTTTTTTTTTTTTT FDIK        TELAPSE        8.10 TCPU        6.07
 POSSIBLY CONDUCTING STATE - EFERMI(AU) -1.4144770E-01 (RES. CHARGE  2.27E-08;IT. 24)
 TTTTTTTTTTTTTTTTTTTTTTTTTTTTTT PDIG        TELAPSE        8.13 TCPU        6.10
 CHARGE NORMALIZATION FACTOR   1.00000000
 TOTAL ATOMIC CHARGES:
   5.9999852   5.9999893   6.0000026   6.0000039   5.9999862   5.9999857
   5.9999854   6.0000072   5.9999850   5.9999985   6.0000298   6.0000075
   6.0000044   6.0000073   6.0000278   5.9999971   6.0000041   5.9999928
 TTTTTTTTTTTTTTTTTTTTTTTTTTTTTT MOQGAD      TELAPSE        8.13 TCPU        6.10
 TTTTTTTTTTTTTTTTTTTTTTTTTTTTTT SHELLXN     TELAPSE        9.56 TCPU        7.53
 TTTTTTTTTTTTTTTTTTTTTTTTTTTTTT MONMO3      TELAPSE        9.78 TCPU        7.75
 NUMERICALLY INTEGRATED DENSITY    107.9998436988
 TTTTTTTTTTTTTTTTTTTTTTTTTTTTTT NUMDFT      TELAPSE       10.17 TCPU        8.14
 CYC   2 ETOT(AU) -6.854298754501E+02 DETOT -1.05E-01 tst  1.64E-03 PX  6.93E-02
 TTTTTTTTTTTTTTTTTTTTTTTTTTTTTT DIIS        TELAPSE       10.19 TCPU        8.15
 DIIS TEST: 0.16568E-02 AT SCF   CYCLE   2 - DIIS ACTIVE - HISTORY:     2 CYCLES
 TTTTTTTTTTTTTTTTTTTTTTTTTTTTTT FDIK        TELAPSE       10.28 TCPU        8.25
 POSSIBLY CONDUCTING STATE - EFERMI(AU) -1.5296571E-01 (RES. CHARGE  7.88E-07;IT. 23)
 TTTTTTTTTTTTTTTTTTTTTTTTTTTTTT PDIG        TELAPSE       10.31 TCPU        8.27
 CHARGE NORMALIZATION FACTOR   1.00000001
 TOTAL ATOMIC CHARGES:
   5.9999830   5.9999871   6.0000032   6.0000045   5.9999845   5.9999829
   5.9999839   6.0000082   5.9999828   5.9999980   6.0000343   6.0000095
   6.0000049   6.0000084   6.0000321   5.9999967   6.0000046   5.9999915
 TTTTTTTTTTTTTTTTTTTTTTTTTTTTTT MOQGAD      TELAPSE       10.31 TCPU        8.28
 TTTTTTTTTTTTTTTTTTTTTTTTTTTTTT SHELLXN     TELAPSE       11.74 TCPU        9.71
 TTTTTTTTTTTTTTTTTTTTTTTTTTTTTT MONMO3      TELAPSE       11.96 TCPU        9.93
 NUMERICALLY INTEGRATED DENSITY    107.9998446771
 TTTTTTTTTTTTTTTTTTTTTTTTTTTTTT NUMDFT      TELAPSE       12.34 TCPU       10.31
 CYC   3 ETOT(AU) -6.854300557546E+02 DETOT -1.80E-04 tst  1.60E-06 PX  4.84E-03
 TTTTTTTTTTTTTTTTTTTTTTTTTTTTTT DIIS        TELAPSE       12.39 TCPU       10.35
 DIIS TEST: 0.11172E-04 AT SCF   CYCLE   3 - DIIS ACTIVE - HISTORY:     3 CYCLES
 TTTTTTTTTTTTTTTTTTTTTTTTTTTTTT FDIK        TELAPSE       12.48 TCPU       10.44
 POSSIBLY CONDUCTING STATE - EFERMI(AU) -1.5292082E-01 (RES. CHARGE  1.43E-06;IT. 16)
 TTTTTTTTTTTTTTTTTTTTTTTTTTTTTT PDIG        TELAPSE       12.51 TCPU       10.47
 CHARGE NORMALIZATION FACTOR   1.00000003
 TOTAL ATOMIC CHARGES:
   5.9999831   5.9999869   6.0000032   6.0000046   5.9999843   5.9999827
   5.9999839   6.0000083   5.9999829   5.9999981   6.0000345   6.0000094
   6.0000048   6.0000082   6.0000323   5.9999968   6.0000045   5.9999915
 TTTTTTTTTTTTTTTTTTTTTTTTTTTTTT MOQGAD      TELAPSE       12.51 TCPU       10.47
 TTTTTTTTTTTTTTTTTTTTTTTTTTTTTT SHELLXN     TELAPSE       13.94 TCPU       11.90
 TTTTTTTTTTTTTTTTTTTTTTTTTTTTTT MONMO3      TELAPSE       14.16 TCPU       12.12
 NUMERICALLY INTEGRATED DENSITY    107.9998446593
 TTTTTTTTTTTTTTTTTTTTTTTTTTTTTT NUMDFT      TELAPSE       14.67 TCPU       12.63
 CYC   4 ETOT(AU) -6.854300609713E+02 DETOT -5.22E-06 tst  1.08E-08 PX  9.34E-05
 TTTTTTTTTTTTTTTTTTTTTTTTTTTTTT DIIS        TELAPSE       14.68 TCPU       12.65
 DIIS TEST: 0.23323E-08 AT SCF   CYCLE   4 - DIIS ACTIVE - HISTORY:     4 CYCLES
 TTTTTTTTTTTTTTTTTTTTTTTTTTTTTT FDIK        TELAPSE       14.78 TCPU       12.74
 POSSIBLY CONDUCTING STATE - EFERMI(AU) -1.5291277E-01 (RES. CHARGE  1.75E-08;IT. 47)
 TTTTTTTTTTTTTTTTTTTTTTTTTTTTTT PDIG        TELAPSE       14.80 TCPU       12.76
 CHARGE NORMALIZATION FACTOR   1.00000000
 TOTAL ATOMIC CHARGES:
   5.9999827   5.9999872   6.0000031   6.0000045   5.9999845   5.9999830
   5.9999842   6.0000084   5.9999826   5.9999977   6.0000343   6.0000099
   6.0000049   6.0000083   6.0000323   5.9999964   6.0000047   5.9999913
 TTTTTTTTTTTTTTTTTTTTTTTTTTTTTT MOQGAD      TELAPSE       14.81 TCPU       12.77
 TTTTTTTTTTTTTTTTTTTTTTTTTTTTTT SHELLXN     TELAPSE       16.24 TCPU       14.20
 TTTTTTTTTTTTTTTTTTTTTTTTTTTTTT MONMO3      TELAPSE       16.45 TCPU       14.41
 NUMERICALLY INTEGRATED DENSITY    107.9998446583
 TTTTTTTTTTTTTTTTTTTTTTTTTTTTTT NUMDFT      TELAPSE       16.84 TCPU       14.80
 CYC   5 ETOT(AU) -6.854300511074E+02 DETOT  9.86E-06 tst  4.23E-12 PX  3.64E-06
 TTTTTTTTTTTTTTTTTTTTTTTTTTTTTT DIIS        TELAPSE       16.86 TCPU       14.82
 DIIS TEST: 0.87211E-11 AT SCF   CYCLE   5 - DIIS ACTIVE - HISTORY:     5 CYCLES
 TTTTTTTTTTTTTTTTTTTTTTTTTTTTTT FDIK        TELAPSE       16.95 TCPU       14.91
 POSSIBLY CONDUCTING STATE - EFERMI(AU) -1.5291295E-01 (RES. CHARGE  4.18E-08;IT. 37)
 TTTTTTTTTTTTTTTTTTTTTTTTTTTTTT PDIG        TELAPSE       16.98 TCPU       14.93
 CHARGE NORMALIZATION FACTOR   1.00000000
 TOTAL ATOMIC CHARGES:
   5.9999839   5.9999864   6.0000032   6.0000047   5.9999841   5.9999821
   5.9999837   6.0000081   5.9999833   5.9999987   6.0000348   6.0000087
   6.0000045   6.0000081   6.0000322   5.9999974   6.0000040   5.9999919
 TTTTTTTTTTTTTTTTTTTTTTTTTTTTTT MOQGAD      TELAPSE       16.98 TCPU       14.94
 TTTTTTTTTTTTTTTTTTTTTTTTTTTTTT SHELLXN     TELAPSE       18.41 TCPU       16.37
 TTTTTTTTTTTTTTTTTTTTTTTTTTTTTT MONMO3      TELAPSE       18.63 TCPU       16.58
 NUMERICALLY INTEGRATED DENSITY    107.9998446584
 TTTTTTTTTTTTTTTTTTTTTTTTTTTTTT NUMDFT      TELAPSE       19.14 TCPU       17.10
 CYC   6 ETOT(AU) -6.854300512762E+02 DETOT -1.69E-07 tst  1.36E-13 PX  3.11E-07
 TTTTTTTTTTTTTTTTTTTTTTTTTTTTTT DIIS        TELAPSE       19.16 TCPU       17.12
 DIIS TEST: 0.15993E-10 AT SCF   CYCLE   6 - DIIS ACTIVE - HISTORY:     6 CYCLES
 TTTTTTTTTTTTTTTTTTTTTTTTTTTTTT FDIK        TELAPSE       19.25 TCPU       17.21
 POSSIBLY CONDUCTING STATE - EFERMI(AU) -1.5291295E-01 (RES. CHARGE  2.77E-08;IT. 41)
 TTTTTTTTTTTTTTTTTTTTTTTTTTTTTT PDIG        TELAPSE       19.28 TCPU       17.23
 CHARGE NORMALIZATION FACTOR   1.00000000
 TOTAL ATOMIC CHARGES:
   5.9999829   5.9999870   6.0000031   6.0000046   5.9999843   5.9999828
   5.9999840   6.0000083   5.9999828   5.9999980   6.0000345   6.0000095
   6.0000049   6.0000082   6.0000323   5.9999967   6.0000045   5.9999915
 TTTTTTTTTTTTTTTTTTTTTTTTTTTTTT MOQGAD      TELAPSE       19.28 TCPU       17.24
 TTTTTTTTTTTTTTTTTTTTTTTTTTTTTT SHELLXN     TELAPSE       20.72 TCPU       18.67
 TTTTTTTTTTTTTTTTTTTTTTTTTTTTTT MONMO3      TELAPSE       20.93 TCPU       18.88
 NUMERICALLY INTEGRATED DENSITY    107.9998446584
 TTTTTTTTTTTTTTTTTTTTTTTTTTTTTT NUMDFT      TELAPSE       21.31 TCPU       19.26
 CYC   7 ETOT(AU) -6.854300511784E+02 DETOT  9.79E-08 tst  8.92E-14 PX  1.63E-07
 TTTTTTTTTTTTTTTTTTTTTTTTTTTTTT DIIS        TELAPSE       21.33 TCPU       19.28
 DIIS TEST: 0.66231E-13 AT SCF   CYCLE   7 - DIIS ACTIVE - HISTORY:     7 CYCLES
 TTTTTTTTTTTTTTTTTTTTTTTTTTTTTT FDIK        TELAPSE       21.43 TCPU       19.37
 POSSIBLY CONDUCTING STATE - EFERMI(AU) -1.5291297E-01 (RES. CHARGE  1.63E-06;IT. 39)
 TTTTTTTTTTTTTTTTTTTTTTTTTTTTTT PDIG        TELAPSE       21.45 TCPU       19.40
 CHARGE NORMALIZATION FACTOR   1.00000003
 TOTAL ATOMIC CHARGES:
   5.9999830   5.9999870   6.0000032   6.0000046   5.9999844   5.9999828
   5.9999841   6.0000083   5.9999828   5.9999980   6.0000344   6.0000096
   6.0000048   6.0000083   6.0000322   5.9999967   6.0000045   5.9999914
 TTTTTTTTTTTTTTTTTTTTTTTTTTTTTT MOQGAD      TELAPSE       21.46 TCPU       19.41
 TTTTTTTTTTTTTTTTTTTTTTTTTTTTTT SHELLXN     TELAPSE       22.89 TCPU       20.83
 TTTTTTTTTTTTTTTTTTTTTTTTTTTTTT MONMO3      TELAPSE       23.10 TCPU       21.05
 NUMERICALLY INTEGRATED DENSITY    107.9998446584
 TTTTTTTTTTTTTTTTTTTTTTTTTTTTTT NUMDFT      TELAPSE       23.63 TCPU       21.58
 CYC   8 ETOT(AU) -6.854300623221E+02 DETOT -1.11E-05 tst  4.80E-16 PX  8.36E-08
 TTTTTTTTTTTTTTTTTTTTTTTTTTTTTT DIIS        TELAPSE       23.66 TCPU       21.60
 DIIS TEST: 0.17489E-12 AT SCF   CYCLE   8 - DIIS ACTIVE - HISTORY:     8 CYCLES
 TTTTTTTTTTTTTTTTTTTTTTTTTTTTTT FDIK        TELAPSE       23.75 TCPU       21.69
 POSSIBLY CONDUCTING STATE - EFERMI(AU) -1.5291296E-01 (RES. CHARGE  2.08E-08;IT. 29)
 TTTTTTTTTTTTTTTTTTTTTTTTTTTTTT PDIG        TELAPSE       23.78 TCPU       21.72
 CHARGE NORMALIZATION FACTOR   1.00000000
 TOTAL ATOMIC CHARGES:
   5.9999830   5.9999870   6.0000032   6.0000046   5.9999844   5.9999828
   5.9999840   6.0000083   5.9999828   5.9999980   6.0000345   6.0000095
   6.0000048   6.0000082   6.0000323   5.9999967   6.0000045   5.9999915
 TTTTTTTTTTTTTTTTTTTTTTTTTTTTTT MOQGAD      TELAPSE       23.78 TCPU       21.72
 TTTTTTTTTTTTTTTTTTTTTTTTTTTTTT SHELLXN     TELAPSE       25.21 TCPU       23.15
 TTTTTTTTTTTTTTTTTTTTTTTTTTTTTT MONMO3      TELAPSE       25.43 TCPU       23.37
 NUMERICALLY INTEGRATED DENSITY    107.9998446584
 TTTTTTTTTTTTTTTTTTTTTTTTTTTTTT NUMDFT      TELAPSE       25.81 TCPU       23.76
 CYC   9 ETOT(AU) -6.854300511304E+02 DETOT  1.12E-05 tst  8.63E-17 PX  7.57E-08
 TTTTTTTTTTTTTTTTTTTTTTTTTTTTTT DIIS        TELAPSE       25.84 TCPU       23.78
 DIIS TEST: 0.18290E-13 AT SCF   CYCLE   9 - DIIS ACTIVE - HISTORY:     8 CYCLES
 TTTTTTTTTTTTTTTTTTTTTTTTTTTTTT FDIK        TELAPSE       25.93 TCPU       23.87
 POSSIBLY CONDUCTING STATE - EFERMI(AU) -1.5291296E-01 (RES. CHARGE  8.31E-10;IT. 50)
 TTTTTTTTTTTTTTTTTTTTTTTTTTTTTT PDIG        TELAPSE       25.95 TCPU       23.90
 CHARGE NORMALIZATION FACTOR   1.00000000
 TOTAL ATOMIC CHARGES:
   5.9999830   5.9999870   6.0000032   6.0000046   5.9999844   5.9999828
   5.9999840   6.0000083   5.9999828   5.9999980   6.0000345   6.0000095
   6.0000048   6.0000082   6.0000323   5.9999967   6.0000045   5.9999915
 TTTTTTTTTTTTTTTTTTTTTTTTTTTTTT MOQGAD      TELAPSE       25.96 TCPU       23.90
 TTTTTTTTTTTTTTTTTTTTTTTTTTTTTT SHELLXN     TELAPSE       27.39 TCPU       25.33
 TTTTTTTTTTTTTTTTTTTTTTTTTTTTTT MONMO3      TELAPSE       27.61 TCPU       25.55
 NUMERICALLY INTEGRATED DENSITY    107.9998446584
 TTTTTTTTTTTTTTTTTTTTTTTTTTTTTT NUMDFT      TELAPSE       28.11 TCPU       26.05
 CYC  10 ETOT(AU) -6.854300509911E+02 DETOT  1.39E-07 tst  3.55E-19 PX  1.25E-09
 TTTTTTTTTTTTTTTTTTTTTTTTTTTTTT DIIS        TELAPSE       28.13 TCPU       26.07
 DIIS TEST: 0.15233E-13 AT SCF   CYCLE  10 - DIIS ACTIVE - HISTORY:     9 CYCLES
 TTTTTTTTTTTTTTTTTTTTTTTTTTTTTT FDIK        TELAPSE       28.22 TCPU       26.16
 POSSIBLY CONDUCTING STATE - EFERMI(AU) -1.5291296E-01 (RES. CHARGE  9.12E-07;IT. 23)
 TTTTTTTTTTTTTTTTTTTTTTTTTTTTTT PDIG        TELAPSE       28.25 TCPU       26.19
 CHARGE NORMALIZATION FACTOR   1.00000002
 TOTAL ATOMIC CHARGES:
   5.9999830   5.9999870   6.0000032   6.0000046   5.9999844   5.9999828
   5.9999840   6.0000083   5.9999828   5.9999980   6.0000345   6.0000095
   6.0000048   6.0000083   6.0000323   5.9999967   6.0000045   5.9999915
 TTTTTTTTTTTTTTTTTTTTTTTTTTTTTT MOQGAD      TELAPSE       28.25 TCPU       26.19
 TTTTTTTTTTTTTTTTTTTTTTTTTTTTTT SHELLXN     TELAPSE       29.69 TCPU       27.62
 TTTTTTTTTTTTTTTTTTTTTTTTTTTTTT MONMO3      TELAPSE       29.90 TCPU       27.84
 NUMERICALLY INTEGRATED DENSITY    107.9998446584
 TTTTTTTTTTTTTTTTTTTTTTTTTTTTTT NUMDFT      TELAPSE       30.44 TCPU       28.38
 CYC  11 ETOT(AU) -6.854300573388E+02 DETOT -6.35E-06 tst  1.09E-18 PX  3.94E-08
 TTTTTTTTTTTTTTTTTTTTTTTTTTTTTT DIIS        TELAPSE       30.46 TCPU       28.40
 DIIS TEST: 0.32934E-14 AT SCF   CYCLE  11 - DIIS ACTIVE - HISTORY:    10 CYCLES
 TTTTTTTTTTTTTTTTTTTTTTTTTTTTTT FDIK        TELAPSE       30.56 TCPU       28.49
 POSSIBLY CONDUCTING STATE - EFERMI(AU) -1.5291296E-01 (RES. CHARGE  5.56E-08;IT. 50)
 TTTTTTTTTTTTTTTTTTTTTTTTTTTTTT PDIG        TELAPSE       30.58 TCPU       28.52
 CHARGE NORMALIZATION FACTOR   1.00000000
 TOTAL ATOMIC CHARGES:
   5.9999830   5.9999870   6.0000032   6.0000046   5.9999844   5.9999828
   5.9999840   6.0000083   5.9999828   5.9999980   6.0000345   6.0000095
   6.0000048   6.0000083   6.0000323   5.9999967   6.0000045   5.9999915
 TTTTTTTTTTTTTTTTTTTTTTTTTTTTTT MOQGAD      TELAPSE       30.59 TCPU       28.52
 TTTTTTTTTTTTTTTTTTTTTTTTTTTTTT SHELLXN     TELAPSE       32.02 TCPU       29.95
 TTTTTTTTTTTTTTTTTTTTTTTTTTTTTT MONMO3      TELAPSE       32.24 TCPU       30.17
 NUMERICALLY INTEGRATED DENSITY    107.9998446584
 TTTTTTTTTTTTTTTTTTTTTTTTTTTTTT NUMDFT      TELAPSE       32.75 TCPU       30.68
 CYC  12 ETOT(AU) -6.854300513728E+02 DETOT  5.97E-06 tst  8.10E-19 PX  3.70E-08
 TTTTTTTTTTTTTTTTTTTTTTTTTTTTTT DIIS        TELAPSE       32.77 TCPU       30.70
 DIIS TEST: 0.12956E-13 AT SCF   CYCLE  12 - DIIS ACTIVE - HISTORY:    11 CYCLES
 TTTTTTTTTTTTTTTTTTTTTTTTTTTTTT FDIK        TELAPSE       32.87 TCPU       30.79
 POSSIBLY CONDUCTING STATE - EFERMI(AU) -1.5291296E-01 (RES. CHARGE  8.21E-09;IT. 25)
 TTTTTTTTTTTTTTTTTTTTTTTTTTTTTT PDIG        TELAPSE       32.89 TCPU       30.82
 CHARGE NORMALIZATION FACTOR   1.00000000
 TOTAL ATOMIC CHARGES:
   5.9999830   5.9999870   6.0000032   6.0000046   5.9999844   5.9999828
   5.9999840   6.0000083   5.9999828   5.9999980   6.0000345   6.0000095
   6.0000048   6.0000083   6.0000323   5.9999967   6.0000045   5.9999915
 TTTTTTTTTTTTTTTTTTTTTTTTTTTTTT MOQGAD      TELAPSE       32.90 TCPU       30.83
 TTTTTTTTTTTTTTTTTTTTTTTTTTTTTT SHELLXN     TELAPSE       34.33 TCPU       32.26
 TTTTTTTTTTTTTTTTTTTTTTTTTTTTTT MONMO3      TELAPSE       34.55 TCPU       32.47
 NUMERICALLY INTEGRATED DENSITY    107.9998446584
 TTTTTTTTTTTTTTTTTTTTTTTTTTTTTT NUMDFT      TELAPSE       35.06 TCPU       32.99
 CYC  13 ETOT(AU) -6.854300510425E+02 DETOT  3.30E-07 tst  7.08E-19 PX  2.65E-09
 TTTTTTTTTTTTTTTTTTTTTTTTTTTTTT DIIS        TELAPSE       35.12 TCPU       33.04
 DIIS TEST: 0.22005E-13 AT SCF   CYCLE  13 - DIIS ACTIVE - HISTORY:    12 CYCLES
 TTTTTTTTTTTTTTTTTTTTTTTTTTTTTT FDIK        TELAPSE       35.21 TCPU       33.14
 POSSIBLY CONDUCTING STATE - EFERMI(AU) -1.5291296E-01 (RES. CHARGE  6.35E-08;IT. 29)
 TTTTTTTTTTTTTTTTTTTTTTTTTTTTTT PDIG        TELAPSE       35.24 TCPU       33.17
 CHARGE NORMALIZATION FACTOR   1.00000000
 TOTAL ATOMIC CHARGES:
   5.9999830   5.9999870   6.0000032   6.0000046   5.9999844   5.9999828
   5.9999840   6.0000083   5.9999828   5.9999980   6.0000345   6.0000095
   6.0000048   6.0000083   6.0000323   5.9999967   6.0000045   5.9999915
 TTTTTTTTTTTTTTTTTTTTTTTTTTTTTT MOQGAD      TELAPSE       35.24 TCPU       33.17
 TTTTTTTTTTTTTTTTTTTTTTTTTTTTTT SHELLXN     TELAPSE       36.68 TCPU       34.60
 TTTTTTTTTTTTTTTTTTTTTTTTTTTTTT MONMO3      TELAPSE       36.89 TCPU       34.82
 NUMERICALLY INTEGRATED DENSITY    107.9998446584
 TTTTTTTTTTTTTTTTTTTTTTTTTTTTTT NUMDFT      TELAPSE       37.28 TCPU       35.21
 CYC  14 ETOT(AU) -6.854300514278E+02 DETOT -3.85E-07 tst  1.89E-18 PX  2.52E-09
 TTTTTTTTTTTTTTTTTTTTTTTTTTTTTT DIIS        TELAPSE       37.31 TCPU       35.24
 DIIS TEST: 0.30407E-13 AT SCF   CYCLE  14 - DIIS ACTIVE - HISTORY:    12 CYCLES
 TTTTTTTTTTTTTTTTTTTTTTTTTTTTTT FDIK        TELAPSE       37.40 TCPU       35.33
 POSSIBLY CONDUCTING STATE - EFERMI(AU) -1.5291296E-01 (RES. CHARGE  4.40E-08;IT. 55)
 TTTTTTTTTTTTTTTTTTTTTTTTTTTTTT PDIG        TELAPSE       37.43 TCPU       35.36
 CHARGE NORMALIZATION FACTOR   1.00000000
 TOTAL ATOMIC CHARGES:
   5.9999830   5.9999870   6.0000032   6.0000046   5.9999844   5.9999828
   5.9999840   6.0000083   5.9999828   5.9999980   6.0000345   6.0000095
   6.0000048   6.0000083   6.0000323   5.9999967   6.0000045   5.9999915
 TTTTTTTTTTTTTTTTTTTTTTTTTTTTTT MOQGAD      TELAPSE       37.44 TCPU       35.36
 TTTTTTTTTTTTTTTTTTTTTTTTTTTTTT SHELLXN     TELAPSE       38.87 TCPU       36.79
 TTTTTTTTTTTTTTTTTTTTTTTTTTTTTT MONMO3      TELAPSE       39.08 TCPU       37.01
 NUMERICALLY INTEGRATED DENSITY    107.9998446584
 TTTTTTTTTTTTTTTTTTTTTTTTTTTTTT NUMDFT      TELAPSE       39.60 TCPU       37.52
 CYC  15 ETOT(AU) -6.854300512918E+02 DETOT  1.36E-07 tst  3.85E-19 PX  1.18E-09
 TTTTTTTTTTTTTTTTTTTTTTTTTTTTTT DIIS        TELAPSE       39.67 TCPU       37.59
 DIIS TEST: 0.26043E-13 AT SCF   CYCLE  15 - DIIS ACTIVE - HISTORY:    12 CYCLES
 TTTTTTTTTTTTTTTTTTTTTTTTTTTTTT FDIK        TELAPSE       39.76 TCPU       37.68
 POSSIBLY CONDUCTING STATE - EFERMI(AU) -1.5291296E-01 (RES. CHARGE  2.96E-08;IT. 47)
 TTTTTTTTTTTTTTTTTTTTTTTTTTTTTT PDIG        TELAPSE       39.78 TCPU       37.71
 CHARGE NORMALIZATION FACTOR   1.00000000
 TOTAL ATOMIC CHARGES:
   5.9999830   5.9999870   6.0000032   6.0000046   5.9999844   5.9999828
   5.9999840   6.0000083   5.9999828   5.9999980   6.0000345   6.0000095
   6.0000048   6.0000083   6.0000323   5.9999967   6.0000045   5.9999915
 TTTTTTTTTTTTTTTTTTTTTTTTTTTTTT MOQGAD      TELAPSE       39.79 TCPU       37.71
 TTTTTTTTTTTTTTTTTTTTTTTTTTTTTT SHELLXN     TELAPSE       41.22 TCPU       39.14
 TTTTTTTTTTTTTTTTTTTTTTTTTTTTTT MONMO3      TELAPSE       41.44 TCPU       39.36
 NUMERICALLY INTEGRATED DENSITY    107.9998446584
 TTTTTTTTTTTTTTTTTTTTTTTTTTTTTT NUMDFT      TELAPSE       41.82 TCPU       39.74
 CYC  16 ETOT(AU) -6.854300511915E+02 DETOT  1.00E-07 tst  1.46E-18 PX  2.47E-09
 TTTTTTTTTTTTTTTTTTTTTTTTTTTTTT DIIS        TELAPSE       41.85 TCPU       39.77
 DIIS TEST: 0.17074E-13 AT SCF   CYCLE  16 - DIIS ACTIVE - HISTORY:    13 CYCLES
 TTTTTTTTTTTTTTTTTTTTTTTTTTTTTT FDIK        TELAPSE       41.94 TCPU       39.86
 POSSIBLY CONDUCTING STATE - EFERMI(AU) -1.5291296E-01 (RES. CHARGE  4.49E-09;IT. 47)
 TTTTTTTTTTTTTTTTTTTTTTTTTTTTTT PDIG        TELAPSE       41.97 TCPU       39.89
 CHARGE NORMALIZATION FACTOR   1.00000000
 TOTAL ATOMIC CHARGES:
   5.9999830   5.9999870   6.0000032   6.0000046   5.9999844   5.9999828
   5.9999840   6.0000083   5.9999828   5.9999980   6.0000345   6.0000095
   6.0000048   6.0000083   6.0000323   5.9999967   6.0000045   5.9999915
 TTTTTTTTTTTTTTTTTTTTTTTTTTTTTT MOQGAD      TELAPSE       41.97 TCPU       39.89
 TTTTTTTTTTTTTTTTTTTTTTTTTTTTTT SHELLXN     TELAPSE       43.40 TCPU       41.32
 TTTTTTTTTTTTTTTTTTTTTTTTTTTTTT MONMO3      TELAPSE       43.62 TCPU       41.54
 NUMERICALLY INTEGRATED DENSITY    107.9998446584
 TTTTTTTTTTTTTTTTTTTTTTTTTTTTTT NUMDFT      TELAPSE       44.14 TCPU       42.05
 CYC  17 ETOT(AU) -6.854300510166E+02 DETOT  1.75E-07 tst  1.02E-17 PX  6.64E-09
 TTTTTTTTTTTTTTTTTTTTTTTTTTTTTT DIIS        TELAPSE       44.17 TCPU       42.08
 DIIS TEST: 0.21542E-14 AT SCF   CYCLE  17 - DIIS ACTIVE - HISTORY:    14 CYCLES
 TTTTTTTTTTTTTTTTTTTTTTTTTTTTTT FDIK        TELAPSE       44.26 TCPU       42.17
 POSSIBLY CONDUCTING STATE - EFERMI(AU) -1.5291297E-01 (RES. CHARGE  4.95E-09;IT. 51)
 TTTTTTTTTTTTTTTTTTTTTTTTTTTTTT PDIG        TELAPSE       44.29 TCPU       42.20
 CHARGE NORMALIZATION FACTOR   1.00000000
 TOTAL ATOMIC CHARGES:
   5.9999830   5.9999870   6.0000032   6.0000046   5.9999844   5.9999828
   5.9999840   6.0000083   5.9999828   5.9999980   6.0000345   6.0000095
   6.0000048   6.0000083   6.0000323   5.9999967   6.0000045   5.9999915
 TTTTTTTTTTTTTTTTTTTTTTTTTTTTTT MOQGAD      TELAPSE       44.29 TCPU       42.20
 TTTTTTTTTTTTTTTTTTTTTTTTTTTTTT SHELLXN     TELAPSE       45.72 TCPU       43.63
 TTTTTTTTTTTTTTTTTTTTTTTTTTTTTT MONMO3      TELAPSE       45.94 TCPU       43.85
 NUMERICALLY INTEGRATED DENSITY    107.9998446584
 TTTTTTTTTTTTTTTTTTTTTTTTTTTTTT NUMDFT      TELAPSE       46.46 TCPU       44.37
 CYC  18 ETOT(AU) -6.854300510199E+02 DETOT -3.23E-09 tst  3.49E-18 PX  4.00E-09
 TTTTTTTTTTTTTTTTTTTTTTTTTTTTTT DIIS        TELAPSE       46.49 TCPU       44.40
 DIIS TEST: 0.40009E-16 AT SCF   CYCLE  18 - DIIS ACTIVE - HISTORY:    15 CYCLES
 TTTTTTTTTTTTTTTTTTTTTTTTTTTTTT FDIK        TELAPSE       46.58 TCPU       44.49
 POSSIBLY CONDUCTING STATE - EFERMI(AU) -1.5291297E-01 (RES. CHARGE  1.70E-09;IT. 21)
 TTTTTTTTTTTTTTTTTTTTTTTTTTTTTT PDIG        TELAPSE       46.61 TCPU       44.52
 CHARGE NORMALIZATION FACTOR   1.00000000
 TOTAL ATOMIC CHARGES:
   5.9999830   5.9999870   6.0000032   6.0000046   5.9999844   5.9999828
   5.9999840   6.0000083   5.9999828   5.9999980   6.0000345   6.0000095
   6.0000048   6.0000083   6.0000323   5.9999967   6.0000045   5.9999915
 TTTTTTTTTTTTTTTTTTTTTTTTTTTTTT MOQGAD      TELAPSE       46.61 TCPU       44.52
 TTTTTTTTTTTTTTTTTTTTTTTTTTTTTT SHELLXN     TELAPSE       48.04 TCPU       45.95

 ::: DIPOLE MOMENT ALONG NON PERIODIC DIRECTIONS:
 ::: A.U.     (Z)  1.17906E-07
 ::: DEBYE        -2.99688E-07

 +++ ENERGIES IN A.U. +++
 ::: EXT EL-POLE                                  -1.7150632578929E+03
 ::: EXT EL-SPHEROPOLE                             0.0000000000000E+00
 ::: BIELET ZONE E-E                               1.6357428760707E+03
 ::: TOTAL E-E                                    -7.9320381822156E+01
 ::: TOTAL E-N + N-E                              -7.9152415222857E+02
 ::: TOTAL N-N                                    -3.9989256711241E+02
 ::: KINETIC ENERGY                                6.8257958928914E+02
 ::: PSEUDO TOTAL   ENERGY                        -5.8815751187400E+02
 ::: VIRIAL COEFFICIENT                            1.0743049662505E+00
 TTTTTTTTTTTTTTTTTTTTTTTTTTTTTT MONMO3      TELAPSE       48.26 TCPU       46.17
 NUMERICALLY INTEGRATED DENSITY    107.9998446584
 TTTTTTTTTTTTTTTTTTTTTTTTTTTTTT NUMDFT      TELAPSE       48.64 TCPU       46.55
 CYC  19 ETOT(AU) -6.854300509972E+02 DETOT  2.27E-08 tst  6.78E-21 PX  4.00E-09

 == SCF ENDED - CONVERGENCE ON TESTER      E(AU) -6.8543005099720E+02 CYCLES  19


 ENERGY EXPRESSION=HARTREE+FOCK EXCH*0.00000+(PBE        EXCH)*1.00000+PBE        CORR


 TOTAL ENERGY(DFT)(AU)( 19) -6.8543005099720E+02 DE 2.3E-08 tester 6.8E-21
 TTTTTTTTTTTTTTTTTTTTTTTTTTTTTT EDFT        TELAPSE       48.64 TCPU       46.55
 EIGENVECTORS IN FORTRAN UNIT 10
 TTTTTTTTTTTTTTTTTTTTTTTTTTTTTT END         TELAPSE       48.87 TCPU       46.75
 EEEEEEEEEE TERMINATION  DATE 31 10 2022 TIME 17:11:43.7
NODE    0 CPU TIME =        46.745
    TOTAL CPU TIME =      6028.053
Note: The following floating-point exceptions are signalling: IEEE_UNDERFLOW_FLAG IEEE_DENORMAL
Note: The following floating-point exceptions are signalling: IEEE_UNDERFLOW_FLAG IEEE_DENORMAL
Note: The following floating-point exceptions are signalling: IEEE_UNDERFLOW_FLAG IEEE_DENORMAL
Note: The following floating-point exceptions are signalling: IEEE_UNDERFLOW_FLAG IEEE_DENORMAL
Note: The following floating-point exceptions are signalling: IEEE_UNDERFLOW_FLAG IEEE_DENORMAL
Note: The following floating-point exceptions are signalling: IEEE_UNDERFLOW_FLAG IEEE_DENORMAL
Note: The following floating-point exceptions are signalling: IEEE_UNDERFLOW_FLAG IEEE_DENORMAL
Note: The following floating-point exceptions are signalling: IEEE_UNDERFLOW_FLAG IEEE_DENORMAL
Note: The following floating-point exceptions are signalling: IEEE_UNDERFLOW_FLAG IEEE_DENORMAL
Note: The following floating-point exceptions are signalling: IEEE_UNDERFLOW_FLAG IEEE_DENORMAL
Note: The following floating-point exceptions are signalling: IEEE_UNDERFLOW_FLAG IEEE_DENORMAL
Note: The following floating-point exceptions are signalling: IEEE_UNDERFLOW_FLAG IEEE_DENORMAL
Note: The following floating-point exceptions are signalling: IEEE_UNDERFLOW_FLAG IEEE_DENORMAL
Note: The following floating-point exceptions are signalling: IEEE_UNDERFLOW_FLAG IEEE_DENORMAL
Note: The following floating-point exceptions are signalling: IEEE_UNDERFLOW_FLAG IEEE_DENORMAL
Note: The following floating-point exceptions are signalling: IEEE_UNDERFLOW_FLAG IEEE_DENORMAL
Note: The following floating-point exceptions are signalling: IEEE_UNDERFLOW_FLAG IEEE_DENORMAL
Note: The following floating-point exceptions are signalling: IEEE_UNDERFLOW_FLAG IEEE_DENORMAL
Note: The following floating-point exceptions are signalling: IEEE_UNDERFLOW_FLAG IEEE_DENORMAL
Note: The following floating-point exceptions are signalling: IEEE_UNDERFLOW_FLAG IEEE_DENORMAL
Note: The following floating-point exceptions are signalling: IEEE_UNDERFLOW_FLAG IEEE_DENORMAL
Note: The following floating-point exceptions are signalling: IEEE_UNDERFLOW_FLAG IEEE_DENORMAL
Note: The following floating-point exceptions are signalling: IEEE_UNDERFLOW_FLAG IEEE_DENORMAL
Note: The following floating-point exceptions are signalling: IEEE_UNDERFLOW_FLAG IEEE_DENORMAL
Note: The following floating-point exceptions are signalling: IEEE_UNDERFLOW_FLAG IEEE_DENORMAL
Note: The following floating-point exceptions are signalling: IEEE_UNDERFLOW_FLAG IEEE_DENORMAL
Note: The following floating-point exceptions are signalling: IEEE_UNDERFLOW_FLAG IEEE_DENORMAL
Note: The following floating-point exceptions are signalling: IEEE_UNDERFLOW_FLAG IEEE_DENORMAL
Note: The following floating-point exceptions are signalling: IEEE_UNDERFLOW_FLAG IEEE_DENORMAL
Note: The following floating-point exceptions are signalling: IEEE_UNDERFLOW_FLAG IEEE_DENORMAL
Note: The following floating-point exceptions are signalling: IEEE_UNDERFLOW_FLAG IEEE_DENORMAL
Note: The following floating-point exceptions are signalling: IEEE_UNDERFLOW_FLAG IEEE_DENORMAL
Note: The following floating-point exceptions are signalling: IEEE_UNDERFLOW_FLAG IEEE_DENORMAL
Note: The following floating-point exceptions are signalling: IEEE_UNDERFLOW_FLAG IEEE_DENORMAL
Note: The following floating-point exceptions are signalling: IEEE_UNDERFLOW_FLAG IEEE_DENORMAL
Note: The following floating-point exceptions are signalling: IEEE_UNDERFLOW_FLAG IEEE_DENORMAL
Note: The following floating-point exceptions are signalling: IEEE_UNDERFLOW_FLAG IEEE_DENORMAL
Note: The following floating-point exceptions are signalling: IEEE_UNDERFLOW_FLAG IEEE_DENORMAL
Note: The following floating-point exceptions are signalling: IEEE_UNDERFLOW_FLAG IEEE_DENORMAL
Note: The following floating-point exceptions are signalling: IEEE_UNDERFLOW_FLAG IEEE_DENORMAL
Note: The following floating-point exceptions are signalling: IEEE_UNDERFLOW_FLAG IEEE_DENORMAL
Note: The following floating-point exceptions are signalling: IEEE_UNDERFLOW_FLAG IEEE_DENORMAL
Note: The following floating-point exceptions are signalling: IEEE_UNDERFLOW_FLAG IEEE_DENORMAL
Note: The following floating-point exceptions are signalling: IEEE_UNDERFLOW_FLAG IEEE_DENORMAL
Note: The following floating-point exceptions are signalling: IEEE_UNDERFLOW_FLAG IEEE_DENORMAL
Note: The following floating-point exceptions are signalling: IEEE_UNDERFLOW_FLAG IEEE_DENORMAL
Note: The following floating-point exceptions are signalling: IEEE_UNDERFLOW_FLAG IEEE_DENORMAL
Note: The following floating-point exceptions are signalling: IEEE_UNDERFLOW_FLAG IEEE_DENORMAL
Note: The following floating-point exceptions are signalling: IEEE_UNDERFLOW_FLAG IEEE_DENORMAL
Note: The following floating-point exceptions are signalling: IEEE_UNDERFLOW_FLAG IEEE_DENORMAL
Note: The following floating-point exceptions are signalling: IEEE_UNDERFLOW_FLAG IEEE_DENORMAL
Note: The following floating-point exceptions are signalling: IEEE_UNDERFLOW_FLAG IEEE_DENORMAL
Note: The following floating-point exceptions are signalling: IEEE_UNDERFLOW_FLAG IEEE_DENORMAL
Note: The following floating-point exceptions are signalling: IEEE_UNDERFLOW_FLAG IEEE_DENORMAL
Note: The following floating-point exceptions are signalling: IEEE_UNDERFLOW_FLAG IEEE_DENORMAL
Note: The following floating-point exceptions are signalling: IEEE_UNDERFLOW_FLAG IEEE_DENORMAL
Note: The following floating-point exceptions are signalling: IEEE_UNDERFLOW_FLAG IEEE_DENORMAL
Note: The following floating-point exceptions are signalling: IEEE_UNDERFLOW_FLAG IEEE_DENORMAL
Note: The following floating-point exceptions are signalling: IEEE_UNDERFLOW_FLAG IEEE_DENORMAL
Note: The following floating-point exceptions are signalling: IEEE_UNDERFLOW_FLAG IEEE_DENORMAL
Note: The following floating-point exceptions are signalling: IEEE_UNDERFLOW_FLAG IEEE_DENORMAL
Note: The following floating-point exceptions are signalling: IEEE_UNDERFLOW_FLAG IEEE_DENORMAL
Note: The following floating-point exceptions are signalling: IEEE_UNDERFLOW_FLAG IEEE_DENORMAL
Note: The following floating-point exceptions are signalling: IEEE_UNDERFLOW_FLAG IEEE_DENORMAL
Note: The following floating-point exceptions are signalling: IEEE_UNDERFLOW_FLAG IEEE_DENORMAL
Note: The following floating-point exceptions are signalling: IEEE_UNDERFLOW_FLAG IEEE_DENORMAL
Note: The following floating-point exceptions are signalling: IEEE_UNDERFLOW_FLAG IEEE_DENORMAL
Note: The following floating-point exceptions are signalling: IEEE_UNDERFLOW_FLAG IEEE_DENORMAL
Note: The following floating-point exceptions are signalling: IEEE_UNDERFLOW_FLAG IEEE_DENORMAL
Note: The following floating-point exceptions are signalling: IEEE_UNDERFLOW_FLAG IEEE_DENORMAL
Note: The following floating-point exceptions are signalling: IEEE_UNDERFLOW_FLAG IEEE_DENORMAL
Note: The following floating-point exceptions are signalling: IEEE_UNDERFLOW_FLAG IEEE_DENORMAL
Note: The following floating-point exceptions are signalling: IEEE_UNDERFLOW_FLAG IEEE_DENORMAL
Note: The following floating-point exceptions are signalling: IEEE_UNDERFLOW_FLAG IEEE_DENORMAL
Note: The following floating-point exceptions are signalling: IEEE_UNDERFLOW_FLAG IEEE_DENORMAL
Note: The following floating-point exceptions are signalling: IEEE_UNDERFLOW_FLAG IEEE_DENORMAL
Note: The following floating-point exceptions are signalling: IEEE_UNDERFLOW_FLAG IEEE_DENORMAL
Note: The following floating-point exceptions are signalling: IEEE_UNDERFLOW_FLAG IEEE_DENORMAL
Note: The following floating-point exceptions are signalling: IEEE_UNDERFLOW_FLAG IEEE_DENORMAL
Note: The following floating-point exceptions are signalling: IEEE_UNDERFLOW_FLAG IEEE_DENORMAL
Note: The following floating-point exceptions are signalling: IEEE_UNDERFLOW_FLAG IEEE_DENORMAL
Note: The following floating-point exceptions are signalling: IEEE_UNDERFLOW_FLAG IEEE_DENORMAL
Note: The following floating-point exceptions are signalling: IEEE_UNDERFLOW_FLAG IEEE_DENORMAL
Note: The following floating-point exceptions are signalling: IEEE_UNDERFLOW_FLAG IEEE_DENORMAL
Note: The following floating-point exceptions are signalling: IEEE_UNDERFLOW_FLAG IEEE_DENORMAL
Note: The following floating-point exceptions are signalling: IEEE_UNDERFLOW_FLAG IEEE_DENORMAL
Note: The following floating-point exceptions are signalling: IEEE_UNDERFLOW_FLAG IEEE_DENORMAL
Note: The following floating-point exceptions are signalling: IEEE_UNDERFLOW_FLAG IEEE_DENORMAL
Note: The following floating-point exceptions are signalling: IEEE_UNDERFLOW_FLAG IEEE_DENORMAL
Note: The following floating-point exceptions are signalling: IEEE_UNDERFLOW_FLAG IEEE_DENORMAL
Note: The following floating-point exceptions are signalling: IEEE_UNDERFLOW_FLAG IEEE_DENORMAL
Note: The following floating-point exceptions are signalling: IEEE_UNDERFLOW_FLAG IEEE_DENORMAL
Note: The following floating-point exceptions are signalling: IEEE_UNDERFLOW_FLAG IEEE_DENORMAL
Note: The following floating-point exceptions are signalling: IEEE_UNDERFLOW_FLAG IEEE_DENORMAL
Note: The following floating-point exceptions are signalling: IEEE_UNDERFLOW_FLAG IEEE_DENORMAL
Note: The following floating-point exceptions are signalling: IEEE_UNDERFLOW_FLAG IEEE_DENORMAL
Note: The following floating-point exceptions are signalling: IEEE_UNDERFLOW_FLAG IEEE_DENORMAL
Note: The following floating-point exceptions are signalling: IEEE_UNDERFLOW_FLAG IEEE_DENORMAL
Note: The following floating-point exceptions are signalling: IEEE_UNDERFLOW_FLAG IEEE_DENORMAL
Note: The following floating-point exceptions are signalling: IEEE_UNDERFLOW_FLAG IEEE_DENORMAL
Note: The following floating-point exceptions are signalling: IEEE_UNDERFLOW_FLAG IEEE_DENORMAL
Note: The following floating-point exceptions are signalling: IEEE_UNDERFLOW_FLAG IEEE_DENORMAL
Note: The following floating-point exceptions are signalling: IEEE_UNDERFLOW_FLAG IEEE_DENORMAL
Note: The following floating-point exceptions are signalling: IEEE_UNDERFLOW_FLAG IEEE_DENORMAL
Note: The following floating-point exceptions are signalling: IEEE_UNDERFLOW_FLAG IEEE_DENORMAL
Note: The following floating-point exceptions are signalling: IEEE_UNDERFLOW_FLAG IEEE_DENORMAL
Note: The following floating-point exceptions are signalling: IEEE_UNDERFLOW_FLAG IEEE_DENORMAL
Note: The following floating-point exceptions are signalling: IEEE_UNDERFLOW_FLAG IEEE_DENORMAL
Note: The following floating-point exceptions are signalling: IEEE_UNDERFLOW_FLAG IEEE_DENORMAL
Note: The following floating-point exceptions are signalling: IEEE_UNDERFLOW_FLAG IEEE_DENORMAL
Note: The following floating-point exceptions are signalling: IEEE_UNDERFLOW_FLAG IEEE_DENORMAL
Note: The following floating-point exceptions are signalling: IEEE_UNDERFLOW_FLAG IEEE_DENORMAL
Note: The following floating-point exceptions are signalling: IEEE_UNDERFLOW_FLAG IEEE_DENORMAL
Note: The following floating-point exceptions are signalling: IEEE_UNDERFLOW_FLAG IEEE_DENORMAL
Note: The following floating-point exceptions are signalling: IEEE_UNDERFLOW_FLAG IEEE_DENORMAL
Note: The following floating-point exceptions are signalling: IEEE_UNDERFLOW_FLAG IEEE_DENORMAL
Note: The following floating-point exceptions are signalling: IEEE_UNDERFLOW_FLAG IEEE_DENORMAL
Note: The following floating-point exceptions are signalling: IEEE_UNDERFLOW_FLAG IEEE_DENORMAL
Note: The following floating-point exceptions are signalling: IEEE_UNDERFLOW_FLAG IEEE_DENORMAL
Note: The following floating-point exceptions are signalling: IEEE_UNDERFLOW_FLAG IEEE_DENORMAL
Note: The following floating-point exceptions are signalling: IEEE_UNDERFLOW_FLAG IEEE_DENORMAL
Note: The following floating-point exceptions are signalling: IEEE_UNDERFLOW_FLAG IEEE_DENORMAL
Note: The following floating-point exceptions are signalling: IEEE_UNDERFLOW_FLAG IEEE_DENORMAL
Note: The following floating-point exceptions are signalling: IEEE_UNDERFLOW_FLAG IEEE_DENORMAL
Note: The following floating-point exceptions are signalling: IEEE_UNDERFLOW_FLAG IEEE_DENORMAL
Note: The following floating-point exceptions are signalling: IEEE_UNDERFLOW_FLAG IEEE_DENORMAL
Note: The following floating-point exceptions are signalling: IEEE_UNDERFLOW_FLAG IEEE_DENORMAL
Note: The following floating-point exceptions are signalling: IEEE_UNDERFLOW_FLAG IEEE_DENORMAL
end_date Mon Oct 31 17:11:44 GMT 2022
 
TEMPORARY          SAVED (in /mnt/lustre/a2fs-work2/work/e05/e05/bcamino/quantum_computing/test_model)
fort.34            graphene_0v_0.gui 1489     Oct 31 17:11
fort.9             graphene_0v_0.f9  1907220  Oct 31 17:11
fort.98            graphene_0v_0.f98 4987635  Oct 31 17:11
 
Disk usage:<du -m>
280	/mnt/lustre/a2fs-work2/work/e05/e05/bcamino/quantum_computing/test_model/tmp_graphene_0v_0_
</du -m>
Filesystem                                          1K-blocks          Used     Available Use% Mounted on
10.253.102.2@o2ib1:10.253.102.3@o2ib1:/cls01097 3582178503216 1808896308476 1737081728640  52% /mnt/lustre/a2fs-work2
10.253.102.2@o2ib1:10.253.102.3@o2ib1:/cls01097 3582178503216 1808896308476 1737081728640  52% /mnt/lustre/a2fs-work2
