date:                Mon Oct 31 17:23:45 GMT 2022
hostname:            nid002533
system:              Linux nid002533 4.12.14-197.78_9.1.64-cray_shasta_c #1 SMP Wed Aug 25 14:56:40 UTC 2021 (4e2a900) x86_64 x86_64 x86_64 GNU/Linux
user:                bcamino
input:               /mnt/lustre/a2fs-work2/work/e05/e05/bcamino/quantum_computing/test_model/graphene_3v_M.d12
output:              /mnt/lustre/a2fs-work2/work/e05/e05/bcamino/quantum_computing/test_model/graphene_3v_M.out
executable script:   /work/e05/e05/bcamino/runCRYSTAL/Pcry_slurm
executable:          Pcrystal
Command:             srun --hint=nomultithread --distribution=block:block Pcrystal
Slurm JobID:         
temporary directory: /mnt/lustre/a2fs-work2/work/e05/e05/bcamino/quantum_computing/test_model/tmp_graphene_3v_M_      
input data /mnt/lustre/a2fs-work2/work/e05/e05/bcamino/quantum_computing/test_model/graphene_3v_M.d12
Final
EXTERNAL
SYMMREMO
END
6 8
0 0 6 2.0 1.0
  13575.349682      0.00022245814352
  2035.2333680      0.00172327382520
  463.22562359      0.00892557153140
  131.20019598      0.03572798450200
  42.853015891      0.11076259931000
  15.584185766      0.24295627626000
0 0 2 2.0 1.0
  6.2067138508      0.41440263448000
  2.5764896527      0.23744968655000
0 0 1 0.0 1.0
  0.4941102000      1.00000000000000
0 0 1 0.0 1.0
  0.1644071000      1.00000000000000
0 2 4 2.0 1.0
  34.697232244      0.00533336578050
  7.9582622826      0.03586410909200
  2.3780826883      0.14215873329000
  0.8143320818      0.34270471845000
0 2 1 0.0 1.0
  0.5662417100      1.00000000000000
0 2 1 0.0 1.0
  0.1973545000      1.00000000000000
0 3 1 0.0 1.0
  0.5791584200      1.00000000000000
99 0
ENDBS
DFT
PBE  
ENDDFT
TOLINTEG
8 8 8 8 16
SCFDIR
SHRINK
8 16  
MAXCYCLE
200
TOLDEE
9 
ENDSCF
input data /mnt/lustre/a2fs-work2/work/e05/e05/bcamino/quantum_computing/test_model/graphene_3v_M.gui
         128 PROCESSORS WORKING

         
 *******************************************************************************
 *                                                                             *
 *                               CRYSTAL17                                     *
 *                      public : 1.0.2 - March 1st, 2018 STFC/Archer2 build    *
 *                       HTTP://WWW.CRYSTAL.UNITO.IT                           *
 *                                                                             *
 *                              MAIN AUTHORS                                   *
 *                                                                             *
 *  R. DOVESI(1,11), V.R. SAUNDERS(2), C. ROETTI(1,11), R. ORLANDO(1,11),      *
 *  C.M. ZICOVICH-WILSON(1,3), F. PASCALE(4), B. CIVALLERI(1,11),              *
 *  K. DOLL(5), N.M. HARRISON(2,6), I.J. BUSH(7), Ph. D'ARCO(8),               *
 *  M. LLUNELL(9), M. CAUSA'(10), Y. NOEL(8), L. MASCHIO(1,11), A. ERBA(1,11)  *
 *  M. RE'RAT(14), S. CASASSA(1,11)                                            *
 *                                                                             *
 *        CONTRIBUTIONS TO THE CODE HAVE ALSO BEEN GIVEN BY                    *
 *                                                                             *
 *  M. FERRABONE(1,11), M. DE LA PIERRE(1,11), M. FERRERO(1,11),               *
 *  J. BAIMA(1,11), E. ALBANESE(1,11), M.F. PEINTINGER(12), R. BAST(13),       *
 *  B. KIRTMAN(15), V. LACIVITA(1,11), R. DEMICHELIS(1,16)                     *
 *  G. BRANDEBURG(17), S. SALUSTRO(1,11), G. SANSONE(1,11)                     *
 *  M.T. RUGGIERO(18)                                                          *
 *                                                                             *
 * (1) THEORETICAL CHEMISTRY GROUP - UNIVERSITA' DI TORINO - TORINO (ITALY)    *
 * (2) COMPUTATIONAL SCIENCE & ENGINEERING DEPARTMENT - STFC DARESBURY (UK)    *
 * (3) UNIVERSIDAD AUTONOMA DEL ESTADO DE MORELOS - CUERNAVACA (MEXICO)        *
 * (4) UNIVERSITE' DE LORRAINE - NANCY (FRANCE)                                *
 * (5) UNIVERSITAET STUTTGART- STUTTGART (GERMANY)                             *
 * (6) IMPERIAL COLLEGE - LONDON (UK)                                          *
 * (7) OXFORD E-RESEARCH CENTRE - OXFORD (UK)                                  *
 * (8) UPMC - SORBONNE UNIVERSITES - PARIS (FRANCE)                            *
 * (9) UNIVERSIDAD DE BARCELONA - BARCELONA (SPAIN)                            *
 *(10) UNIVERSITA' DI NAPOLI "FEDERICO II" - NAPOLI (ITALY)                    *
 *(11) NIS - NANOSTRUCTURED INTERFACES AND SURFACES - TORINO (ITALY)           *
 *(12) MPI FUER CHEMISCHE ENERGIEKONVERSION - MUELHEIM AN DER RUHR (GERMANY)   *
 *(13) UNIVERSITY OF TROMSO - TROMSO (NORWAY)                                  *
 *(14) UNIVERSITE' DE PAU ET DES PAYS DE L'ADOUR - PAU (FRANCE)                *
 *(15) UNIVERSITY OF CALIFORNIA SANTA BARBARA - SANTA BARBARA (USA)            *
 *(16) CURTIN UNIVERSITY - PERTH (AUSTRALIA)                                   *
 *(17) UNIVERSITY COLLEGE LONDON - LONDON (UK)                                 *
 *(18) CAMBRIDGE UNIVERSITY - CAMBRIDGE (UK)                                   *
 *                                                                             *
 *******************************************************************************
 EEEEEEEEEE STARTING  DATE 31 10 2022 TIME 17:23:48.0
 Final                                                                           

 GEOMETRY INPUT FROM EXTERNAL FILE (FORTRAN UNIT 34)
 3D - CRYSTAL 

 *******************************************************************************
 LATTICE PARAMETERS  (ANGSTROMS AND DEGREES) - PRIMITIVE CELL
       A          B          C        ALPHA      BETA     GAMMA        VOLUME
    7.40317    7.40317    8.68504    90.00000  90.00000 120.00000    412.228566
 INFORMATION **** CHKGRP **** SPGR WITH NO INVERSION

 NUMBER OF IRREDUCIBLE ATOMS IN THE CELL:   15

 CARTESIAN COORDINATES (ANGSTROM) - IRREDUCIBLE ATOMS AND SYMMETRY RELATED

 AT.IRR.  AT  AT.N.          X                   Y                   Z
     1     1     6    2.467724141366E+00  2.849482394607E+00  2.605511400000E+00
     2     2     6    3.701586212049E+00  4.986594190562E+00  2.605511400000E+00
     3     3     6    2.467724141366E+00 -1.424741197304E+00  2.605511400000E+00
     4     4     6    3.701586212049E+00  7.123705986520E-01  2.605511400000E+00
     5     5     6    3.701586212049E+00 -3.561852993259E+00  2.605511400000E+00
     6     6     6    4.935448282733E+00 -1.424741197304E+00  2.605511400000E+00
     7     7     6    6.169310353416E+00  7.123705986520E-01  2.605511400000E+00
     8     8     6    1.233862070683E+00 -7.123705986520E-01  2.605511400000E+00
     9     9     6    2.467724141366E+00  1.424741197304E+00  2.605511400000E+00
    10    10     6    3.701586212049E+00  3.561852993259E+00  2.605511400000E+00
    11    11     6    2.467724141366E+00 -2.849482394607E+00  2.605511400000E+00
    12    12     6    4.935448282733E+00  1.424741197304E+00  2.605511400000E+00
    13    13     6    3.701586212049E+00 -4.986594190562E+00  2.605511400000E+00
    14    14     6    4.935448282733E+00 -2.849482394607E+00  2.605511400000E+00
    15    15     6    6.169310353416E+00 -7.123705986520E-01  2.605511400000E+00

 SPACE  GROUP  N.                     :    1
 NUMBER OF SYMMETRY OPERATORS         :    1
 *******************************************************************************
 LATTICE PARAMETERS (ANGSTROMS AND DEGREES) - BOHR = 0.5291772083 ANGSTROM
 PRIMITIVE CELL - CENTRING CODE 1/0 VOLUME=   412.228566 - DENSITY  0.725 g/cm^3
         A              B              C           ALPHA      BETA       GAMMA 
     7.40317242     7.40317242     8.68503800    90.000000  90.000000 120.000000
 *******************************************************************************
 ATOMS IN THE ASYMMETRIC UNIT   15 - ATOMS IN THE UNIT CELL:   15
     ATOM                 X/A                 Y/B                 Z/C    
 *******************************************************************************
      1 T   6 C     1.111111111111E-01 -4.444444444445E-01  3.000000000000E-01
      2 T   6 C     1.111111111111E-01 -1.111111111111E-01  3.000000000000E-01
      3 T   6 C     4.444444444445E-01  2.222222222222E-01  3.000000000000E-01
      4 T   6 C     4.444444444444E-01 -4.444444444444E-01  3.000000000000E-01
      5 T   6 C    -2.222222222222E-01  2.222222222222E-01  3.000000000000E-01
      6 T   6 C    -2.222222222221E-01 -4.444444444443E-01  3.000000000000E-01
      7 T   6 C    -2.222222222221E-01 -1.111111111110E-01  3.000000000000E-01
      8 T   6 C     2.222222222222E-01  1.111111111111E-01  3.000000000000E-01
      9 T   6 C     2.222222222222E-01  4.444444444445E-01  3.000000000000E-01
     10 T   6 C     2.222222222222E-01 -2.222222222222E-01  3.000000000000E-01
     11 T   6 C    -4.444444444445E-01  1.111111111111E-01  3.000000000000E-01
     12 T   6 C    -4.444444444443E-01 -2.222222222221E-01  3.000000000000E-01
     13 T   6 C    -1.111111111111E-01  1.111111111111E-01  3.000000000000E-01
     14 T   6 C    -1.111111111110E-01  4.444444444446E-01  3.000000000000E-01
     15 T   6 C    -1.111111111110E-01 -2.222222222221E-01  3.000000000000E-01

 T = ATOM BELONGING TO THE ASYMMETRIC UNIT
 *******************************************************************************
 * GEOMETRY EDITING - INPUT COORDINATES ARE GIVEN IN ANGSTROM         
 *******************************************************************************

 USE OF SYMMETRY WILL BE SUBSEQUENTLY SUSPENDED

 GCALCO - MAX INDICES DIRECT LATTICE VECTOR    16    16    12
 NO.OF VECTORS CREATED 6999 STARS  379 RMAX   166.99060 BOHR

 GEOMETRY FOR WAVE FUNCTION - DIMENSIONALITY OF THE SYSTEM    3
 (NON PERIODIC DIRECTION: LATTICE PARAMETER FORMALLY SET TO 500)
 *******************************************************************************
 LATTICE PARAMETERS (ANGSTROMS AND DEGREES) - BOHR = 0.5291772083 ANGSTROM
 PRIMITIVE CELL - CENTRING CODE 1/0 VOLUME=   412.228566 - DENSITY  0.725 g/cm^3
         A              B              C           ALPHA      BETA       GAMMA 
     7.40317242     7.40317242     8.68503800    90.000000  90.000000 120.000000
 *******************************************************************************
 ATOMS IN THE ASYMMETRIC UNIT   15 - ATOMS IN THE UNIT CELL:   15
     ATOM                 X/A                 Y/B                 Z/C    
 *******************************************************************************
      1 T   6 C     1.111111111111E-01 -4.444444444445E-01  3.000000000000E-01
      2 T   6 C     1.111111111111E-01 -1.111111111111E-01  3.000000000000E-01
      3 T   6 C     4.444444444445E-01  2.222222222222E-01  3.000000000000E-01
      4 T   6 C     4.444444444444E-01 -4.444444444444E-01  3.000000000000E-01
      5 T   6 C    -2.222222222222E-01  2.222222222222E-01  3.000000000000E-01
      6 T   6 C    -2.222222222221E-01 -4.444444444443E-01  3.000000000000E-01
      7 T   6 C    -2.222222222221E-01 -1.111111111110E-01  3.000000000000E-01
      8 T   6 C     2.222222222222E-01  1.111111111111E-01  3.000000000000E-01
      9 T   6 C     2.222222222222E-01  4.444444444445E-01  3.000000000000E-01
     10 T   6 C     2.222222222222E-01 -2.222222222222E-01  3.000000000000E-01
     11 T   6 C    -4.444444444445E-01  1.111111111111E-01  3.000000000000E-01
     12 T   6 C    -4.444444444443E-01 -2.222222222221E-01  3.000000000000E-01
     13 T   6 C    -1.111111111111E-01  1.111111111111E-01  3.000000000000E-01
     14 T   6 C    -1.111111111110E-01  4.444444444446E-01  3.000000000000E-01
     15 T   6 C    -1.111111111110E-01 -2.222222222221E-01  3.000000000000E-01

 T = ATOM BELONGING TO THE ASYMMETRIC UNIT

 ****    1 SYMMOPS - TRANSLATORS IN FRACTIONAL UNITS
 **** MATRICES AND TRANSLATORS IN THE CRYSTALLOGRAPHIC REFERENCE FRAME
   V INV                    ROTATION MATRICES                   TRANSLATORS
   1   1  1.00  0.00  0.00  0.00  1.00  0.00  0.00  0.00  1.00  0.00  0.00  0.00

 DIRECT LATTICE VECTORS CARTESIAN COMPONENTS (ANGSTROM)
          X                    Y                    Z
   0.370158621205E+01  -0.641133538787E+01   0.000000000000E+00
   0.370158621205E+01   0.641133538787E+01   0.000000000000E+00
   0.000000000000E+00   0.000000000000E+00   0.868503800000E+01


 CARTESIAN COORDINATES - PRIMITIVE CELL
 *******************************************************************************
 *      ATOM          X(ANGSTROM)         Y(ANGSTROM)         Z(ANGSTROM)
 *******************************************************************************
    1     6 C     2.467724141366E+00  2.849482394607E+00  2.605511400000E+00
    2     6 C     3.701586212049E+00  4.986594190562E+00  2.605511400000E+00
    3     6 C     2.467724141366E+00 -1.424741197304E+00  2.605511400000E+00
    4     6 C     3.701586212049E+00  7.123705986520E-01  2.605511400000E+00
    5     6 C     3.701586212049E+00 -3.561852993259E+00  2.605511400000E+00
    6     6 C     4.935448282733E+00 -1.424741197304E+00  2.605511400000E+00
    7     6 C     6.169310353416E+00  7.123705986520E-01  2.605511400000E+00
    8     6 C     1.233862070683E+00 -7.123705986520E-01  2.605511400000E+00
    9     6 C     2.467724141366E+00  1.424741197304E+00  2.605511400000E+00
   10     6 C     3.701586212049E+00  3.561852993259E+00  2.605511400000E+00
   11     6 C     2.467724141366E+00 -2.849482394607E+00  2.605511400000E+00
   12     6 C     4.935448282733E+00  1.424741197304E+00  2.605511400000E+00
   13     6 C     3.701586212049E+00 -4.986594190562E+00  2.605511400000E+00
   14     6 C     4.935448282733E+00 -2.849482394607E+00  2.605511400000E+00
   15     6 C     6.169310353416E+00 -7.123705986520E-01  2.605511400000E+00

 *******************************************************************************
 LOCAL ATOMIC FUNCTIONS BASIS SET
 *******************************************************************************
   ATOM   X(AU)   Y(AU)   Z(AU)  N. TYPE  EXPONENT  S COEF   P COEF   D/F/G COEF
 *******************************************************************************
   1 C    4.663   5.385   4.924
                                  1 S  
                                         1.358E+04 2.225E-04 0.000E+00 0.000E+00
                                         2.035E+03 1.723E-03 0.000E+00 0.000E+00
                                         4.632E+02 8.926E-03 0.000E+00 0.000E+00
                                         1.312E+02 3.573E-02 0.000E+00 0.000E+00
                                         4.285E+01 1.108E-01 0.000E+00 0.000E+00
                                         1.558E+01 2.430E-01 0.000E+00 0.000E+00
                                  2 S  
                                         6.207E+00 4.144E-01 0.000E+00 0.000E+00
                                         2.576E+00 2.374E-01 0.000E+00 0.000E+00
                                  3 S  
                                         4.941E-01 1.000E+00 0.000E+00 0.000E+00
                                  4 S  
                                         1.644E-01 1.000E+00 0.000E+00 0.000E+00
                           5-     7 P  
                                         3.470E+01 0.000E+00 5.333E-03 0.000E+00
                                         7.958E+00 0.000E+00 3.586E-02 0.000E+00
                                         2.378E+00 0.000E+00 1.422E-01 0.000E+00
                                         8.143E-01 0.000E+00 3.427E-01 0.000E+00
                           8-    10 P  
                                         5.662E-01 0.000E+00 1.000E+00 0.000E+00
                          11-    13 P  
                                         1.974E-01 0.000E+00 1.000E+00 0.000E+00
                          14-    18 D  
                                         5.792E-01 0.000E+00 0.000E+00 1.000E+00
   2 C    6.995   9.423   4.924
   3 C    4.663  -2.692   4.924
   4 C    6.995   1.346   4.924
   5 C    6.995  -6.731   4.924
   6 C    9.327  -2.692   4.924
   7 C   11.658   1.346   4.924
   8 C    2.332  -1.346   4.924
   9 C    4.663   2.692   4.924
  10 C    6.995   6.731   4.924
  11 C    4.663  -5.385   4.924
  12 C    9.327   2.692   4.924
  13 C    6.995  -9.423   4.924
  14 C    9.327  -5.385   4.924
  15 C   11.658  -1.346   4.924
 INFORMATION **** SET_MPP **** PCRYSTAL CALCULATION
 INFORMATION **** READM2 **** NEW DEFAULT: FOCK/KS MATRIX MIXING SET TO 30 %
 INFORMATION **** READM2 **** NEW DEFAULT: FULL DIRECT SCF MODE
 INFORMATION **** READM2 **** NEW DEFAULT: COULOMB BIPOLAR BUFFER SET TO 32 Mb
 INFORMATION **** READM2 **** NEW DEFAULT: EXCHANGE BIPOLAR BUFFER SET TO 32 Mb

 *******************************************************************************
 NEW DEFAULT: DFT INTEGRATION GRID INCREASED TO XLGRID
 NEW DEFAULT: DIIS ACCELERATOR ACTIVE
 USE KEYWORD NODIIS TO TURN IT OFF
 *******************************************************************************

 INFORMATION **** TOLINTEG **** COULOMB AND EXCHANGE SERIES TOLERANCES MODIFIED
 INFORMATION **** READM2 **** FULL DIRECT SCF (MONO AND BIEL INT) SELECTED
 INFORMATION **** MAXCYCLE **** MAX NUMBER OF SCF CYCLES SET TO         200
 INFORMATION **** TOLDEE **** SCF TOL ON TOTAL ENERGY SET TO           9
 *******************************************************************************
 N. OF ATOMS PER CELL        15  COULOMB OVERLAP TOL         (T1) 10**   -8
 NUMBER OF SHELLS           120  COULOMB PENETRATION TOL     (T2) 10**   -8
 NUMBER OF AO               270  EXCHANGE OVERLAP TOL        (T3) 10**   20
 N. OF ELECTRONS PER CELL    90  EXCHANGE PSEUDO OVP (F(G))  (T4) 10**   20
 CORE ELECTRONS PER CELL     30  EXCHANGE PSEUDO OVP (P(G))  (T5) 10**   20
 N. OF SYMMETRY OPERATORS     1  POLE ORDER IN MONO ZONE                  4
 *******************************************************************************
 TYPE OF CALCULATION :  RESTRICTED CLOSED SHELL
 KOHN-SHAM HAMILTONIAN

 (EXCHANGE)[CORRELATION] FUNCTIONAL:(PERDEW-BURKE-ERNZERHOF)[PERDEW-BURKE-ERNZERHOF]


 CAPPA:IS1  8;IS2  8;IS3  8; K PTS MONK NET 260; SYMMOPS:K SPACE   2;G SPACE   1

 *******************************************************************************
 MAX NUMBER OF SCF CYCLES     200  CONVERGENCE ON DELTAP        10**-19
 WEIGHT OF F(I) IN F(I+1)      30% CONVERGENCE ON ENERGY        10**- 9
 SHRINK. FACT.(MONKH.)    8  8  8  NUMBER OF K POINTS IN THE IBZ    260
 SHRINKING FACTOR(GILAT NET)   16  NUMBER OF K POINTS(GILAT NET)   2052
 *******************************************************************************
 *** K POINTS COORDINATES (OBLIQUE COORDINATES IN UNITS OF IS =  8)
   1-R(  0  0  0)   2-C(  1  0  0)   3-C(  2  0  0)   4-C(  3  0  0)
   5-R(  4  0  0)   6-C(  0  1  0)   7-C(  1  1  0)   8-C(  2  1  0)
   9-C(  3  1  0)  10-C(  4  1  0)  11-C(  5  1  0)  12-C(  6  1  0)
  13-C(  7  1  0)  14-C(  0  2  0)  15-C(  1  2  0)  16-C(  2  2  0)
  17-C(  3  2  0)  18-C(  4  2  0)  19-C(  5  2  0)  20-C(  6  2  0)
  21-C(  7  2  0)  22-C(  0  3  0)  23-C(  1  3  0)  24-C(  2  3  0)
  25-C(  3  3  0)  26-C(  4  3  0)  27-C(  5  3  0)  28-C(  6  3  0)
  29-C(  7  3  0)  30-R(  0  4  0)  31-C(  1  4  0)  32-C(  2  4  0)
  33-C(  3  4  0)  34-R(  4  4  0)  35-C(  0  0  1)  36-C(  1  0  1)
  37-C(  2  0  1)  38-C(  3  0  1)  39-C(  4  0  1)  40-C(  5  0  1)
  41-C(  6  0  1)  42-C(  7  0  1)  43-C(  0  1  1)  44-C(  1  1  1)
  45-C(  2  1  1)  46-C(  3  1  1)  47-C(  4  1  1)  48-C(  5  1  1)
  49-C(  6  1  1)  50-C(  7  1  1)  51-C(  0  2  1)  52-C(  1  2  1)
  53-C(  2  2  1)  54-C(  3  2  1)  55-C(  4  2  1)  56-C(  5  2  1)
  57-C(  6  2  1)  58-C(  7  2  1)  59-C(  0  3  1)  60-C(  1  3  1)
  61-C(  2  3  1)  62-C(  3  3  1)  63-C(  4  3  1)  64-C(  5  3  1)
  65-C(  6  3  1)  66-C(  7  3  1)  67-C(  0  4  1)  68-C(  1  4  1)
  69-C(  2  4  1)  70-C(  3  4  1)  71-C(  4  4  1)  72-C(  5  4  1)
  73-C(  6  4  1)  74-C(  7  4  1)  75-C(  0  5  1)  76-C(  1  5  1)
  77-C(  2  5  1)  78-C(  3  5  1)  79-C(  4  5  1)  80-C(  5  5  1)
  81-C(  6  5  1)  82-C(  7  5  1)  83-C(  0  6  1)  84-C(  1  6  1)
  85-C(  2  6  1)  86-C(  3  6  1)  87-C(  4  6  1)  88-C(  5  6  1)
  89-C(  6  6  1)  90-C(  7  6  1)  91-C(  0  7  1)  92-C(  1  7  1)
  93-C(  2  7  1)  94-C(  3  7  1)  95-C(  4  7  1)  96-C(  5  7  1)
  97-C(  6  7  1)  98-C(  7  7  1)  99-C(  0  0  2) 100-C(  1  0  2)
 101-C(  2  0  2) 102-C(  3  0  2) 103-C(  4  0  2) 104-C(  5  0  2)
 105-C(  6  0  2) 106-C(  7  0  2) 107-C(  0  1  2) 108-C(  1  1  2)
 109-C(  2  1  2) 110-C(  3  1  2) 111-C(  4  1  2) 112-C(  5  1  2)
 113-C(  6  1  2) 114-C(  7  1  2) 115-C(  0  2  2) 116-C(  1  2  2)
 117-C(  2  2  2) 118-C(  3  2  2) 119-C(  4  2  2) 120-C(  5  2  2)
 121-C(  6  2  2) 122-C(  7  2  2) 123-C(  0  3  2) 124-C(  1  3  2)
 125-C(  2  3  2) 126-C(  3  3  2) 127-C(  4  3  2) 128-C(  5  3  2)
 129-C(  6  3  2) 130-C(  7  3  2) 131-C(  0  4  2) 132-C(  1  4  2)
 133-C(  2  4  2) 134-C(  3  4  2) 135-C(  4  4  2) 136-C(  5  4  2)
 137-C(  6  4  2) 138-C(  7  4  2) 139-C(  0  5  2) 140-C(  1  5  2)
 141-C(  2  5  2) 142-C(  3  5  2) 143-C(  4  5  2) 144-C(  5  5  2)
 145-C(  6  5  2) 146-C(  7  5  2) 147-C(  0  6  2) 148-C(  1  6  2)
 149-C(  2  6  2) 150-C(  3  6  2) 151-C(  4  6  2) 152-C(  5  6  2)
 153-C(  6  6  2) 154-C(  7  6  2) 155-C(  0  7  2) 156-C(  1  7  2)
 157-C(  2  7  2) 158-C(  3  7  2) 159-C(  4  7  2) 160-C(  5  7  2)
 161-C(  6  7  2) 162-C(  7  7  2) 163-C(  0  0  3) 164-C(  1  0  3)
 165-C(  2  0  3) 166-C(  3  0  3) 167-C(  4  0  3) 168-C(  5  0  3)
 169-C(  6  0  3) 170-C(  7  0  3) 171-C(  0  1  3) 172-C(  1  1  3)
 173-C(  2  1  3) 174-C(  3  1  3) 175-C(  4  1  3) 176-C(  5  1  3)
 177-C(  6  1  3) 178-C(  7  1  3) 179-C(  0  2  3) 180-C(  1  2  3)
 181-C(  2  2  3) 182-C(  3  2  3) 183-C(  4  2  3) 184-C(  5  2  3)
 185-C(  6  2  3) 186-C(  7  2  3) 187-C(  0  3  3) 188-C(  1  3  3)
 189-C(  2  3  3) 190-C(  3  3  3) 191-C(  4  3  3) 192-C(  5  3  3)
 193-C(  6  3  3) 194-C(  7  3  3) 195-C(  0  4  3) 196-C(  1  4  3)
 197-C(  2  4  3) 198-C(  3  4  3) 199-C(  4  4  3) 200-C(  5  4  3)
 201-C(  6  4  3) 202-C(  7  4  3) 203-C(  0  5  3) 204-C(  1  5  3)
 205-C(  2  5  3) 206-C(  3  5  3) 207-C(  4  5  3) 208-C(  5  5  3)
 209-C(  6  5  3) 210-C(  7  5  3) 211-C(  0  6  3) 212-C(  1  6  3)
 213-C(  2  6  3) 214-C(  3  6  3) 215-C(  4  6  3) 216-C(  5  6  3)
 217-C(  6  6  3) 218-C(  7  6  3) 219-C(  0  7  3) 220-C(  1  7  3)
 221-C(  2  7  3) 222-C(  3  7  3) 223-C(  4  7  3) 224-C(  5  7  3)
 225-C(  6  7  3) 226-C(  7  7  3) 227-R(  0  0  4) 228-C(  1  0  4)
 229-C(  2  0  4) 230-C(  3  0  4) 231-R(  4  0  4) 232-C(  0  1  4)
 233-C(  1  1  4) 234-C(  2  1  4) 235-C(  3  1  4) 236-C(  4  1  4)
 237-C(  5  1  4) 238-C(  6  1  4) 239-C(  7  1  4) 240-C(  0  2  4)
 241-C(  1  2  4) 242-C(  2  2  4) 243-C(  3  2  4) 244-C(  4  2  4)
 245-C(  5  2  4) 246-C(  6  2  4) 247-C(  7  2  4) 248-C(  0  3  4)
 249-C(  1  3  4) 250-C(  2  3  4) 251-C(  3  3  4) 252-C(  4  3  4)
 253-C(  5  3  4) 254-C(  6  3  4) 255-C(  7  3  4) 256-R(  0  4  4)
 257-C(  1  4  4) 258-C(  2  4  4) 259-C(  3  4  4) 260-R(  4  4  4)

 DIRECT LATTICE VECTORS COMPON. (A.U.)     RECIP. LATTICE VECTORS COMPON. (A.U.) 
        X            Y            Z              X            Y            Z
    6.9949842  -12.1156680    0.0000000      0.4491208   -0.2593000    0.0000000
    6.9949842   12.1156680    0.0000000      0.4491208    0.2593000   -0.0000000
    0.0000000    0.0000000   16.4123433     -0.0000000    0.0000000    0.3828329

 DISK SPACE FOR EIGENVECTORS (FTN 10)    37324800 REALS

 SYMMETRY ADAPTION OF THE BLOCH FUNCTIONS DISABLED
 TTTTTTTTTTTTTTTTTTTTTTTTTTTTTT gordsh1     TELAPSE        2.83 TCPU        2.09

 MATRIX SIZE: P(G)  110880, F(G)   55620, P(G) IRR   55905, F(G) IRR   55905
 MAX G-VECTOR INDEX FOR 1- AND 2-ELECTRON INTEGRALS  27

 TTTTTTTTTTTTTTTTTTTTTTTTTTTTTT INPUT       TELAPSE        2.84 TCPU        2.09

 NEIGHBORS OF THE NON-EQUIVALENT ATOMS

 N = NUMBER OF NEIGHBORS AT DISTANCE R
    ATOM  N     R/ANG      R/AU   NEIGHBORS (ATOM LABELS AND CELL INDICES)
   1 C    3     1.4247     2.6924    9 C    0 0 0   10 C    0 0 0   14 C   -1 0 0
   1 C    4     2.4677     4.6633    2 C    0 0 0    4 C    0 0 0    5 C   -1 0 0
                                     6 C   -1 0 0
   1 C    3     2.8495     5.3847   12 C    0 0 0   13 C   -1 0 0   15 C   -1 0 0
   1 C    4     3.7695     7.1233    8 C    0 0 0    8 C    0 1 0   11 C   -1 0 0
                                    11 C    0 1 0
   1 C    6     4.2742     8.0771    3 C    0 0 0    3 C   -1 0 0    3 C    0 1 0
                                     7 C    0 0 0    7 C   -1-1 0    7 C   -1 0 0
   1 C    4     4.9354     9.3266    2 C    0-1 0    4 C   -1 0 0    5 C    0 1 0
                                     6 C    0 0 0

   2 C    3     1.4247     2.6924    8 C    0 1 0   10 C    0 0 0   15 C   -1 0 0
   2 C    4     2.4677     4.6633    1 C    0 0 0    3 C    0 1 0    6 C   -1 0 0
                                     7 C   -1 0 0
   2 C    3     2.8495     5.3847   11 C    0 1 0   13 C   -1 1 0   14 C   -1 0 0
   2 C    4     3.7695     7.1233    9 C    0 0 0    9 C    0 1 0   12 C    0 0 0
                                    12 C   -1 0 0
   2 C    6     4.2742     8.0771    4 C    0 0 0    4 C   -1 0 0    4 C    0 1 0
                                     5 C   -1 0 0    5 C    0 1 0    5 C   -1 1 0
   2 C    4     4.9354     9.3266    1 C    0 1 0    3 C   -1 0 0    6 C    0 1 0
                                     7 C    0 0 0

   3 C    2     1.4247     2.6924    8 C    0 0 0   11 C    0 0 0
   3 C    4     2.4677     4.6633    2 C    0-1 0    4 C    0 0 0    5 C    0 0 0
                                     6 C    0 0 0
   3 C    3     2.8495     5.3847    9 C    0 0 0   10 C    0-1 0   14 C    0 0 0
   3 C    6     3.7695     7.1233   12 C    0 0 0   12 C    0-1 0   13 C    0 0 0
                                    13 C   -1 0 0   15 C    0 0 0   15 C   -1-1 0
   3 C    6     4.2742     8.0771    1 C    0 0 0    1 C    1 0 0    1 C    0-1 0
                                     7 C    0 0 0    7 C   -1-1 0    7 C    0-1 0
   3 C    4     4.9354     9.3266    2 C    1 0 0    4 C    0-1 0    5 C   -1 0 0
                                     6 C   -1-1 0

   4 C    2     1.4247     2.6924    9 C    0 0 0   12 C    0 0 0
   4 C    4     2.4677     4.6633    1 C    0 0 0    3 C    0 0 0    6 C    0 0 0
                                     7 C    0 0 0
   4 C    3     2.8495     5.3847    8 C    0 0 0   10 C    0 0 0   15 C    0 0 0
   4 C    6     3.7695     7.1233   11 C    0 0 0   11 C    0 1 0   13 C   -1 0 0
                                    13 C    0 1 0   14 C    0 0 0   14 C   -1 0 0
   4 C    6     4.2742     8.0771    2 C    0 0 0    2 C    1 0 0    2 C    0-1 0
                                     5 C    0 0 0    5 C   -1 0 0    5 C    0 1 0
   4 C    4     4.9354     9.3266    1 C    1 0 0    3 C    0 1 0    6 C   -1 0 0
                                     7 C   -1-1 0

   5 C    3     1.4247     2.6924   11 C    0 0 0   13 C    0 0 0   14 C    0 0 0
   5 C    4     2.4677     4.6633    1 C    1 0 0    3 C    0 0 0    6 C    0 0 0
                                     7 C    0-1 0
   5 C    2     2.8495     5.3847    9 C    1 0 0   12 C    0-1 0
   5 C    6     3.7695     7.1233    8 C    0 0 0    8 C    1 0 0   10 C    1 0 0
                                    10 C    0-1 0   15 C    0 0 0   15 C    0-1 0
   5 C    6     4.2742     8.0771    2 C    1 0 0    2 C    0-1 0    2 C    1-1 0
                                     4 C    0 0 0    4 C    1 0 0    4 C    0-1 0
   5 C    4     4.9354     9.3266    1 C    0-1 0    3 C    1 0 0    6 C    0-1 0
                                     7 C    0 0 0

   6 C    2     1.4247     2.6924   14 C    0 0 0   15 C    0 0 0
   6 C    6     2.4677     4.6633    1 C    1 0 0    2 C    1 0 0    3 C    0 0 0
                                     4 C    0 0 0    5 C    0 0 0    7 C    0 0 0
   6 C    3     2.8495     5.3847   10 C    1 0 0   11 C    0 0 0   12 C    0 0 0
   6 C    6     3.7695     7.1233    8 C    0 0 0    8 C    1 1 0    9 C    0 0 0
                                     9 C    1 0 0   13 C    0 0 0   13 C    0 1 0
   6 C    6     4.9354     9.3266    1 C    0 0 0    2 C    0-1 0    3 C    1 1 0
                                     4 C    1 0 0    5 C    0 1 0    7 C    0-1 0
   6 C    6     5.1370     9.7075   10 C    0 0 0   10 C    0-1 0   11 C    1 1 0
                                    11 C    0 1 0   12 C    1 0 0   12 C    0-1 0

   7 C    3     1.4247     2.6924   12 C    0 0 0   13 C    0 1 0   15 C    0 0 0
   7 C    4     2.4677     4.6633    2 C    1 0 0    4 C    0 0 0    5 C    0 1 0
                                     6 C    0 0 0
   7 C    2     2.8495     5.3847    8 C    1 1 0   11 C    0 1 0
   7 C    6     3.7695     7.1233    9 C    0 0 0    9 C    1 1 0   10 C    0 0 0
                                    10 C    1 0 0   14 C    0 0 0   14 C    0 1 0
   7 C    6     4.2742     8.0771    1 C    0 0 0    1 C    1 1 0    1 C    1 0 0
                                     3 C    0 0 0    3 C    1 1 0    3 C    0 1 0
   7 C    4     4.9354     9.3266    2 C    0 0 0    4 C    1 1 0    5 C    0 0 0
                                     6 C    0 1 0

   8 C    2     1.4247     2.6924    2 C    0-1 0    3 C    0 0 0
   8 C    5     2.4677     4.6633    9 C    0 0 0   10 C    0-1 0   11 C    0 0 0
                                    13 C   -1 0 0   15 C   -1-1 0
   8 C    2     2.8495     5.3847    4 C    0 0 0    7 C   -1-1 0
   8 C    6     3.7695     7.1233    1 C    0 0 0    1 C    0-1 0    5 C    0 0 0
                                     5 C   -1 0 0    6 C    0 0 0    6 C   -1-1 0
   8 C    6     4.2742     8.0771   12 C    0 0 0   12 C   -1-1 0   12 C    0-1 0
                                    14 C    0 0 0   14 C   -1-1 0   14 C   -1 0 0
   8 C    5     4.9354     9.3266    9 C    0-1 0   10 C    0 0 0   11 C   -1 0 0
                                    13 C    0 0 0   15 C    0 0 0

   9 C    2     1.4247     2.6924    1 C    0 0 0    4 C    0 0 0
   9 C    5     2.4677     4.6633    8 C    0 0 0   10 C    0 0 0   12 C    0 0 0
                                    13 C   -1 0 0   14 C   -1 0 0
   9 C    2     2.8495     5.3847    3 C    0 0 0    5 C   -1 0 0
   9 C    6     3.7695     7.1233    2 C    0 0 0    2 C    0-1 0    6 C    0 0 0
                                     6 C   -1 0 0    7 C    0 0 0    7 C   -1-1 0
   9 C    6     4.2742     8.0771   11 C    0 0 0   11 C   -1 0 0   11 C    0 1 0
                                    15 C    0 0 0   15 C   -1-1 0   15 C   -1 0 0
   9 C    5     4.9354     9.3266    8 C    0 1 0   10 C    0-1 0   12 C   -1-1 0
                                    13 C    0 1 0   14 C    0 0 0

  10 C    2     1.4247     2.6924    1 C    0 0 0    2 C    0 0 0
  10 C    6     2.4677     4.6633    8 C    0 1 0    9 C    0 0 0   11 C    0 1 0
                                    12 C    0 0 0   14 C   -1 0 0   15 C   -1 0 0
  10 C    3     2.8495     5.3847    3 C    0 1 0    4 C    0 0 0    6 C   -1 0 0
  10 C    4     3.7695     7.1233    5 C   -1 0 0    5 C    0 1 0    7 C    0 0 0
                                     7 C   -1 0 0
  10 C    3     4.2742     8.0771   13 C   -1 0 0   13 C    0 1 0   13 C   -1 1 0
  10 C    6     4.9354     9.3266    8 C    0 0 0    9 C    0 1 0   11 C   -1 0 0
                                    12 C   -1 0 0   14 C    0 1 0   15 C    0 0 0

  11 C    2     1.4247     2.6924    3 C    0 0 0    5 C    0 0 0
  11 C    5     2.4677     4.6633    8 C    0 0 0   10 C    0-1 0   12 C    0-1 0
                                    13 C    0 0 0   14 C    0 0 0
  11 C    3     2.8495     5.3847    2 C    0-1 0    6 C    0 0 0    7 C    0-1 0
  11 C    4     3.7695     7.1233    1 C    1 0 0    1 C    0-1 0    4 C    0 0 0
                                     4 C    0-1 0
  11 C    6     4.2742     8.0771    9 C    0 0 0    9 C    1 0 0    9 C    0-1 0
                                    15 C    0 0 0   15 C   -1-1 0   15 C    0-1 0
  11 C    5     4.9354     9.3266    8 C    1 0 0   10 C    1 0 0   12 C    0 0 0
                                    13 C   -1 0 0   14 C   -1-1 0

  12 C    2     1.4247     2.6924    4 C    0 0 0    7 C    0 0 0
  12 C    5     2.4677     4.6633    9 C    0 0 0   10 C    0 0 0   11 C    0 1 0
                                    13 C    0 1 0   15 C    0 0 0
  12 C    3     2.8495     5.3847    1 C    0 0 0    5 C    0 1 0    6 C    0 0 0
  12 C    4     3.7695     7.1233    2 C    0 0 0    2 C    1 0 0    3 C    0 0 0
                                     3 C    0 1 0
  12 C    6     4.2742     8.0771    8 C    0 0 0    8 C    1 1 0    8 C    0 1 0
                                    14 C    0 0 0   14 C   -1 0 0   14 C    0 1 0
  12 C    5     4.9354     9.3266    9 C    1 1 0   10 C    1 0 0   11 C    0 0 0
                                    13 C   -1 0 0   15 C   -1 0 0

  13 C    2     1.4247     2.6924    5 C    0 0 0    7 C    0-1 0
  13 C    6     2.4677     4.6633    8 C    1 0 0    9 C    1 0 0   11 C    0 0 0
                                    12 C    0-1 0   14 C    0 0 0   15 C    0-1 0
  13 C    2     2.8495     5.3847    1 C    1 0 0    2 C    1-1 0
  13 C    6     3.7695     7.1233    3 C    0 0 0    3 C    1 0 0    4 C    1 0 0
                                     4 C    0-1 0    6 C    0 0 0    6 C    0-1 0
  13 C    3     4.2742     8.0771   10 C    1 0 0   10 C    0-1 0   10 C    1-1 0
  13 C    6     4.9354     9.3266    8 C    0 0 0    9 C    0-1 0   11 C    1 0 0
                                    12 C    1 0 0   14 C    0-1 0   15 C    0 0 0

  14 C    3     1.4247     2.6924    1 C    1 0 0    5 C    0 0 0    6 C    0 0 0
  14 C    5     2.4677     4.6633    9 C    1 0 0   10 C    1 0 0   11 C    0 0 0
                                    13 C    0 0 0   15 C    0 0 0
  14 C    2     2.8495     5.3847    2 C    1 0 0    3 C    0 0 0
  14 C    4     3.7695     7.1233    4 C    0 0 0    4 C    1 0 0    7 C    0 0 0
                                     7 C    0-1 0
  14 C    6     4.2742     8.0771    8 C    0 0 0    8 C    1 1 0    8 C    1 0 0
                                    12 C    0 0 0   12 C    1 0 0   12 C    0-1 0
  14 C    5     4.9354     9.3266    9 C    0 0 0   10 C    0-1 0   11 C    1 1 0
                                    13 C    0 1 0   15 C    0-1 0

  15 C    3     1.4247     2.6924    2 C    1 0 0    6 C    0 0 0    7 C    0 0 0
  15 C    5     2.4677     4.6633    8 C    1 1 0   10 C    1 0 0   12 C    0 0 0
                                    13 C    0 1 0   14 C    0 0 0
  15 C    2     2.8495     5.3847    1 C    1 0 0    4 C    0 0 0
  15 C    4     3.7695     7.1233    3 C    0 0 0    3 C    1 1 0    5 C    0 0 0
                                     5 C    0 1 0
  15 C    6     4.2742     8.0771    9 C    0 0 0    9 C    1 1 0    9 C    1 0 0
                                    11 C    0 0 0   11 C    1 1 0   11 C    0 1 0
  15 C    5     4.9354     9.3266    8 C    0 0 0   10 C    0 0 0   12 C    1 0 0
                                    13 C    0 0 0   14 C    0 1 0


 SYMMETRY ALLOWED INTERNAL DEGREE(S) OF FREEDOM:  42
 TTTTTTTTTTTTTTTTTTTTTTTTTTTTTT SYMM        TELAPSE        2.84 TCPU        2.10
 TTTTTTTTTTTTTTTTTTTTTTTTTTTTTT INT_SCREEN  TELAPSE        2.84 TCPU        2.10
 INFORMATION **** EXCBUF **** EXCH. BIPO BUFFER: WORDS USED =           0

 DFT PARAMETERS

     ATOM       ELECTRONS   NET CHARGE   R(ANGSTROM)
   1   6  C       6.0000      0.0000     0.77000000

 SIZE OF GRID=     505074
 TTTTTTTTTTTTTTTTTTTTTTTTTTTTTT MAKE_GRID2  TELAPSE        3.12 TCPU        2.38
 BECKE WEIGHT FUNCTION
 RADSAFE =     2.00
 TOLERANCES - DENSITY:10**- 6; POTENTIAL:10**- 9; GRID WGT:10**-14

 RADIAL INTEGRATION  - INTERVALS (POINTS,UPPER LIMIT):            1( 75,  4.0*R)

 ANGULAR INTEGRATION - INTERVALS (ACCURACY LEVEL [N. POINTS] UPPER LIMIT):
  1(  4[  86]   0.2)  2(  8[ 194]   0.5)  3( 12[ 350]   0.9)  4( 16[ 974]   3.5)
  5( 12[ 350]9999.0)
 TTTTTTTTTTTTTTTTTTTTTTTTTTTTTT INT_CALC    TELAPSE        3.15 TCPU        2.40
 EEEEEEEEEE INT_CALC TERMINATION  DATE 31 10 2022 TIME 17:23:48.6

 *******************************************************************************
 Final                                                                           
 CRYSTAL - SCF - TYPE OF CALCULATION :  RESTRICTED CLOSED SHELL
 *******************************************************************************

 CAPPA:IS1  8;IS2  8;IS3  8; K PTS MONK NET 260; SYMMOPS:K SPACE   2;G SPACE   1

 TTTTTTTTTTTTTTTTTTTTTTTTTTTTTT SDIK        TELAPSE        3.21 TCPU        2.46

 AAAAAAAAAAAAAAAAAAAAAAAAAAAAAAAAAAAAAAAAAAAAAAAAAAAAAAAAAAAAAAAAAAAAAAAAAAAAAAA
         ATOMIC WAVEFUNCTION(S)


 NUCLEAR CHARGE  6.0  SYMMETRY SPECIES            S    P
 N. ELECTRONS    6.0  NUMBER OF PRIMITIVE GTOS   10    6
                      NUMBER OF CONTRACTED GTOS   4    3
                      NUMBER OF CLOSED SHELLS     2    0
                      OPEN SHELL OCCUPATION       0    2

  ZNUC SCFIT  TOTAL HF ENERGY   KINETIC ENERGY   VIRIAL THEOREM ACCURACY
   6.0  10   -3.768111494E+01  3.771190961E+01 -1.999183423E+00  3.4E-06

 AAAAAAAAAAAAAAAAAAAAAAAAAAAAAAAAAAAAAAAAAAAAAAAAAAAAAAAAAAAAAAAAAAAAAAAAAAAAAAA

 CHARGE NORMALIZATION FACTOR   1.00000000
 TOTAL ATOMIC CHARGES:
   6.0000000   6.0000000   6.0000000   6.0000000   6.0000000   6.0000000
   6.0000000   6.0000000   6.0000000   6.0000000   6.0000000   6.0000000
   6.0000000   6.0000000   6.0000000
 TTTTTTTTTTTTTTTTTTTTTTTTTTTTTT MOQGAD      TELAPSE        3.22 TCPU        2.47
 TTTTTTTTTTTTTTTTTTTTTTTTTTTTTT SHELLXN     TELAPSE        3.83 TCPU        3.08
 TTTTTTTTTTTTTTTTTTTTTTTTTTTTTT MONMO3      TELAPSE        3.93 TCPU        3.18
 NUMERICALLY INTEGRATED DENSITY     89.9998026091
 TTTTTTTTTTTTTTTTTTTTTTTTTTTTTT NUMDFT      TELAPSE        4.08 TCPU        3.33
 CYC   0 ETOT(AU) -5.736141142304E+02 DETOT -5.74E+02 tst  0.00E+00 PX  1.00E+00
 TTTTTTTTTTTTTTTTTTTTTTTTTTTTTT DIIS        TELAPSE        4.09 TCPU        3.34
 TTTTTTTTTTTTTTTTTTTTTTTTTTTTTT FDIK        TELAPSE        4.25 TCPU        3.50
 POSSIBLY CONDUCTING STATE - EFERMI(AU) -2.3024437E-01 (RES. CHARGE  2.98E-13;IT. 14)
 TTTTTTTTTTTTTTTTTTTTTTTTTTTTTT PDIG        TELAPSE        4.35 TCPU        3.60
 CHARGE NORMALIZATION FACTOR   1.00000000
 TOTAL ATOMIC CHARGES:
   6.0817683   6.0817600   6.1416526   6.1416421   6.0877459   6.1891540
   6.0877865   5.7517516   5.7519900   5.8871928   5.9380017   5.9381554
   5.7840032   6.0686893   6.0687066
 TTTTTTTTTTTTTTTTTTTTTTTTTTTTTT MOQGAD      TELAPSE        4.35 TCPU        3.60
 TTTTTTTTTTTTTTTTTTTTTTTTTTTTTT SHELLXN     TELAPSE        5.06 TCPU        4.31
 TTTTTTTTTTTTTTTTTTTTTTTTTTTTTT MONMO3      TELAPSE        5.17 TCPU        4.42
 NUMERICALLY INTEGRATED DENSITY     89.9998421533
 TTTTTTTTTTTTTTTTTTTTTTTTTTTTTT NUMDFT      TELAPSE        5.43 TCPU        4.68
 CYC   1 ETOT(AU) -5.702654674966E+02 DETOT  3.35E+00 tst  0.00E+00 PX  1.00E+00
 TTTTTTTTTTTTTTTTTTTTTTTTTTTTTT DIIS        TELAPSE        5.45 TCPU        4.69
 DIIS TEST: 0.10103E+01 AT SCF   CYCLE   1 - MIX   30 %
 TTTTTTTTTTTTTTTTTTTTTTTTTTTTTT FDIK        TELAPSE        5.62 TCPU        4.87
 POSSIBLY CONDUCTING STATE - EFERMI(AU) -2.0260649E-01 (RES. CHARGE  2.27E-13;IT. 10)
 TTTTTTTTTTTTTTTTTTTTTTTTTTTTTT PDIG        TELAPSE        5.72 TCPU        4.97
 CHARGE NORMALIZATION FACTOR   1.00000000
 TOTAL ATOMIC CHARGES:
   5.7561185   5.7560263   5.5923274   5.5922511   5.7086688   4.8740950
   5.7086199   7.0931337   7.0943102   6.0345692   5.9955067   5.9963753
   7.3608392   5.7184787   5.7186800
 TTTTTTTTTTTTTTTTTTTTTTTTTTTTTT MOQGAD      TELAPSE        5.72 TCPU        4.97
 TTTTTTTTTTTTTTTTTTTTTTTTTTTTTT SHELLXN     TELAPSE        6.43 TCPU        5.68
 TTTTTTTTTTTTTTTTTTTTTTTTTTTTTT MONMO3      TELAPSE        6.54 TCPU        5.79
 NUMERICALLY INTEGRATED DENSITY     89.9998169172
 TTTTTTTTTTTTTTTTTTTTTTTTTTTTTT NUMDFT      TELAPSE        6.80 TCPU        6.04
 CYC   2 ETOT(AU) -5.688665433254E+02 DETOT  1.40E+00 tst  6.91E-02 PX  3.06E-01
 TTTTTTTTTTTTTTTTTTTTTTTTTTTTTT DIIS        TELAPSE        6.81 TCPU        6.06
 DIIS TEST: 0.13561E+02 AT SCF   CYCLE   2 - DIIS ACTIVE - HISTORY:     2 CYCLES
 TTTTTTTTTTTTTTTTTTTTTTTTTTTTTT FDIK        TELAPSE        6.99 TCPU        6.23
 POSSIBLY CONDUCTING STATE - EFERMI(AU) -1.6450985E-01 (RES. CHARGE  5.27E-10;IT.  8)
 TTTTTTTTTTTTTTTTTTTTTTTTTTTTTT PDIG        TELAPSE        7.09 TCPU        6.32
 CHARGE NORMALIZATION FACTOR   1.00000000
 TOTAL ATOMIC CHARGES:
   5.8080361   5.8079715   5.9457878   5.9446179   5.8003442   6.2924033
   5.8003588   5.8040109   5.8007459   6.5855973   6.4414751   6.4386577
   5.6281939   5.9509973   5.9508022
 TTTTTTTTTTTTTTTTTTTTTTTTTTTTTT MOQGAD      TELAPSE        7.09 TCPU        6.32
 TTTTTTTTTTTTTTTTTTTTTTTTTTTTTT SHELLXN     TELAPSE        7.81 TCPU        7.04
 TTTTTTTTTTTTTTTTTTTTTTTTTTTTTT MONMO3      TELAPSE        7.92 TCPU        7.15
 NUMERICALLY INTEGRATED DENSITY     89.9998047314
 TTTTTTTTTTTTTTTTTTTTTTTTTTTTTT NUMDFT      TELAPSE        8.17 TCPU        7.40
 CYC   3 ETOT(AU) -5.701398998677E+02 DETOT -1.27E+00 tst  1.35E-01 PX  3.14E-01
 TTTTTTTTTTTTTTTTTTTTTTTTTTTTTT DIIS        TELAPSE        8.19 TCPU        7.42
 DIIS TEST: 0.22011E+01 AT SCF   CYCLE   3 - DIIS ACTIVE - HISTORY:     3 CYCLES
 TTTTTTTTTTTTTTTTTTTTTTTTTTTTTT FDIK        TELAPSE        8.37 TCPU        7.60
 POSSIBLY CONDUCTING STATE - EFERMI(AU) -1.6555529E-01 (RES. CHARGE  1.69E-10;IT. 12)
 TTTTTTTTTTTTTTTTTTTTTTTTTTTTTT PDIG        TELAPSE        8.46 TCPU        7.69
 CHARGE NORMALIZATION FACTOR   1.00000000
 TOTAL ATOMIC CHARGES:
   5.9806596   5.9804594   6.1426458   6.1442214   5.9998851   6.2192182
   5.9999335   6.0939959   6.0969813   5.4386357   5.7945880   5.7973996
   6.1902307   6.0605486   6.0605974
 TTTTTTTTTTTTTTTTTTTTTTTTTTTTTT MOQGAD      TELAPSE        8.46 TCPU        7.69
 TTTTTTTTTTTTTTTTTTTTTTTTTTTTTT SHELLXN     TELAPSE        9.18 TCPU        8.41
 TTTTTTTTTTTTTTTTTTTTTTTTTTTTTT MONMO3      TELAPSE        9.29 TCPU        8.52
 NUMERICALLY INTEGRATED DENSITY     89.9998096970
 TTTTTTTTTTTTTTTTTTTTTTTTTTTTTT NUMDFT      TELAPSE        9.54 TCPU        8.77
 CYC   4 ETOT(AU) -5.702754179770E+02 DETOT -1.36E-01 tst  7.18E-02 PX  1.95E-01
 TTTTTTTTTTTTTTTTTTTTTTTTTTTTTT DIIS        TELAPSE        9.56 TCPU        8.78
 DIIS TEST: 0.11333E+01 AT SCF   CYCLE   4 - DIIS ACTIVE - HISTORY:     4 CYCLES
 TTTTTTTTTTTTTTTTTTTTTTTTTTTTTT FDIK        TELAPSE        9.74 TCPU        8.96
 POSSIBLY CONDUCTING STATE - EFERMI(AU) -1.7652840E-01 (RES. CHARGE  2.73E-12;IT. 18)
 TTTTTTTTTTTTTTTTTTTTTTTTTTTTTT PDIG        TELAPSE        9.84 TCPU        9.06
 CHARGE NORMALIZATION FACTOR   1.00000000
 TOTAL ATOMIC CHARGES:
   6.0310366   6.0313387   5.9982202   5.9977369   6.0101576   5.5560854
   6.0100289   6.0345695   6.0324482   6.1735434   5.9699243   5.9689006
   6.1274016   6.0293410   6.0292671
 TTTTTTTTTTTTTTTTTTTTTTTTTTTTTT MOQGAD      TELAPSE        9.84 TCPU        9.06
 TTTTTTTTTTTTTTTTTTTTTTTTTTTTTT SHELLXN     TELAPSE       10.55 TCPU        9.78
 TTTTTTTTTTTTTTTTTTTTTTTTTTTTTT MONMO3      TELAPSE       10.66 TCPU        9.89
 NUMERICALLY INTEGRATED DENSITY     89.9998091510
 TTTTTTTTTTTTTTTTTTTTTTTTTTTTTT NUMDFT      TELAPSE       11.04 TCPU       10.26
 CYC   5 ETOT(AU) -5.703504451856E+02 DETOT -7.50E-02 tst  9.03E-03 PX  1.08E-01
 TTTTTTTTTTTTTTTTTTTTTTTTTTTTTT DIIS        TELAPSE       11.07 TCPU       10.29
 DIIS TEST: 0.45109E+00 AT SCF   CYCLE   5 - DIIS ACTIVE - HISTORY:     5 CYCLES
 TTTTTTTTTTTTTTTTTTTTTTTTTTTTTT FDIK        TELAPSE       11.25 TCPU       10.47
 POSSIBLY CONDUCTING STATE - EFERMI(AU) -1.8675936E-01 (RES. CHARGE  7.74E-11;IT. 14)
 TTTTTTTTTTTTTTTTTTTTTTTTTTTTTT PDIG        TELAPSE       11.35 TCPU       10.57
 CHARGE NORMALIZATION FACTOR   1.00000000
 TOTAL ATOMIC CHARGES:
   5.9649715   5.9647680   5.9807427   5.9805061   5.9632226   6.0233417
   5.9632384   6.0577797   6.0619520   5.8508840   6.0567490   6.0553826
   6.1170144   5.9797164   5.9797306
 TTTTTTTTTTTTTTTTTTTTTTTTTTTTTT MOQGAD      TELAPSE       11.35 TCPU       10.57
 TTTTTTTTTTTTTTTTTTTTTTTTTTTTTT SHELLXN     TELAPSE       12.06 TCPU       11.28
 TTTTTTTTTTTTTTTTTTTTTTTTTTTTTT MONMO3      TELAPSE       12.17 TCPU       11.39
 NUMERICALLY INTEGRATED DENSITY     89.9998150713
 TTTTTTTTTTTTTTTTTTTTTTTTTTTTTT NUMDFT      TELAPSE       12.53 TCPU       11.75
 CYC   6 ETOT(AU) -5.703988792434E+02 DETOT -4.84E-02 tst  6.37E-03 PX  6.81E-02
 TTTTTTTTTTTTTTTTTTTTTTTTTTTTTT DIIS        TELAPSE       12.56 TCPU       11.78
 DIIS TEST: 0.61765E-01 AT SCF   CYCLE   6 - DIIS ACTIVE - HISTORY:     6 CYCLES
 TTTTTTTTTTTTTTTTTTTTTTTTTTTTTT FDIK        TELAPSE       12.74 TCPU       11.96
 POSSIBLY CONDUCTING STATE - EFERMI(AU) -1.8757671E-01 (RES. CHARGE  5.36E-11;IT. 14)
 TTTTTTTTTTTTTTTTTTTTTTTTTTTTTT PDIG        TELAPSE       12.84 TCPU       12.05
 CHARGE NORMALIZATION FACTOR   1.00000000
 TOTAL ATOMIC CHARGES:
   5.9598969   5.9602810   6.0419558   6.0417086   5.9472160   6.0665812
   5.9472870   6.0349147   6.0273234   6.0204474   5.9672084   5.9703636
   6.0250222   5.9947544   5.9950395
 TTTTTTTTTTTTTTTTTTTTTTTTTTTTTT MOQGAD      TELAPSE       12.84 TCPU       12.05
 TTTTTTTTTTTTTTTTTTTTTTTTTTTTTT SHELLXN     TELAPSE       13.55 TCPU       12.77
 TTTTTTTTTTTTTTTTTTTTTTTTTTTTTT MONMO3      TELAPSE       13.66 TCPU       12.88
 NUMERICALLY INTEGRATED DENSITY     89.9998162497
 TTTTTTTTTTTTTTTTTTTTTTTTTTTTTT NUMDFT      TELAPSE       13.92 TCPU       13.13
 CYC   7 ETOT(AU) -5.704035896563E+02 DETOT -4.71E-03 tst  4.95E-04 PX  2.77E-02
 TTTTTTTTTTTTTTTTTTTTTTTTTTTTTT DIIS        TELAPSE       13.93 TCPU       13.15
 DIIS TEST: 0.30044E-01 AT SCF   CYCLE   7 - DIIS ACTIVE - HISTORY:     7 CYCLES
 TTTTTTTTTTTTTTTTTTTTTTTTTTTTTT FDIK        TELAPSE       14.12 TCPU       13.33
 POSSIBLY CONDUCTING STATE - EFERMI(AU) -1.8701021E-01 (RES. CHARGE  3.41E-10;IT. 10)
 TTTTTTTTTTTTTTTTTTTTTTTTTTTTTT PDIG        TELAPSE       14.21 TCPU       13.43
 CHARGE NORMALIZATION FACTOR   1.00000000
 TOTAL ATOMIC CHARGES:
   5.9547288   5.9540891   6.0325493   6.0331286   5.9619258   6.0115802
   5.9616554   5.9838408   5.9900540   5.9785742   6.0299113   6.0280395
   6.0580160   6.0111614   6.0107456
 TTTTTTTTTTTTTTTTTTTTTTTTTTTTTT MOQGAD      TELAPSE       14.22 TCPU       13.43
 TTTTTTTTTTTTTTTTTTTTTTTTTTTTTT SHELLXN     TELAPSE       14.93 TCPU       14.14
 TTTTTTTTTTTTTTTTTTTTTTTTTTTTTT MONMO3      TELAPSE       15.04 TCPU       14.25
 NUMERICALLY INTEGRATED DENSITY     89.9998158988
 TTTTTTTTTTTTTTTTTTTTTTTTTTTTTT NUMDFT      TELAPSE       15.29 TCPU       14.51
 CYC   8 ETOT(AU) -5.704065154530E+02 DETOT -2.93E-03 tst  5.51E-05 PX  9.03E-03
 TTTTTTTTTTTTTTTTTTTTTTTTTTTTTT DIIS        TELAPSE       15.31 TCPU       14.52
 DIIS TEST: 0.34119E-02 AT SCF   CYCLE   8 - DIIS ACTIVE - HISTORY:     8 CYCLES
 TTTTTTTTTTTTTTTTTTTTTTTTTTTTTT FDIK        TELAPSE       15.49 TCPU       14.70
 POSSIBLY CONDUCTING STATE - EFERMI(AU) -1.8664834E-01 (RES. CHARGE  8.59E-10;IT.  8)
 TTTTTTTTTTTTTTTTTTTTTTTTTTTTTT PDIG        TELAPSE       15.59 TCPU       14.80
 CHARGE NORMALIZATION FACTOR   1.00000000
 TOTAL ATOMIC CHARGES:
   5.9651064   5.9659193   6.0162684   6.0155396   5.9624102   6.0149778
   5.9627681   6.0124890   6.0061890   5.9802259   6.0309489   6.0316576
   6.0161423   6.0094441   6.0099133
 TTTTTTTTTTTTTTTTTTTTTTTTTTTTTT MOQGAD      TELAPSE       15.59 TCPU       14.80
 TTTTTTTTTTTTTTTTTTTTTTTTTTTTTT SHELLXN     TELAPSE       16.31 TCPU       15.52
 TTTTTTTTTTTTTTTTTTTTTTTTTTTTTT MONMO3      TELAPSE       16.42 TCPU       15.62
 NUMERICALLY INTEGRATED DENSITY     89.9998156414
 TTTTTTTTTTTTTTTTTTTTTTTTTTTTTT NUMDFT      TELAPSE       16.67 TCPU       15.88
 CYC   9 ETOT(AU) -5.704068037842E+02 DETOT -2.88E-04 tst  1.34E-05 PX  5.83E-03
 TTTTTTTTTTTTTTTTTTTTTTTTTTTTTT DIIS        TELAPSE       16.69 TCPU       15.90
 DIIS TEST: 0.10343E-02 AT SCF   CYCLE   9 - DIIS ACTIVE - HISTORY:     9 CYCLES
 TTTTTTTTTTTTTTTTTTTTTTTTTTTTTT FDIK        TELAPSE       16.87 TCPU       16.08
 POSSIBLY CONDUCTING STATE - EFERMI(AU) -1.8636896E-01 (RES. CHARGE  9.81E-12;IT. 10)
 TTTTTTTTTTTTTTTTTTTTTTTTTTTTTT PDIG        TELAPSE       16.97 TCPU       16.17
 CHARGE NORMALIZATION FACTOR   1.00000000
 TOTAL ATOMIC CHARGES:
   5.9668674   5.9660320   6.0189242   6.0194388   5.9642385   6.0047952
   5.9639350   5.9949055   6.0026585   5.9982130   6.0293378   6.0273336
   6.0360105   6.0038793   6.0034306
 TTTTTTTTTTTTTTTTTTTTTTTTTTTTTT MOQGAD      TELAPSE       16.97 TCPU       16.18
 TTTTTTTTTTTTTTTTTTTTTTTTTTTTTT SHELLXN     TELAPSE       17.68 TCPU       16.89
 TTTTTTTTTTTTTTTTTTTTTTTTTTTTTT MONMO3      TELAPSE       17.79 TCPU       17.00
 NUMERICALLY INTEGRATED DENSITY     89.9998150970
 TTTTTTTTTTTTTTTTTTTTTTTTTTTTTT NUMDFT      TELAPSE       18.05 TCPU       17.26
 CYC  10 ETOT(AU) -5.704069178746E+02 DETOT -1.14E-04 tst  9.44E-06 PX  6.00E-03
 TTTTTTTTTTTTTTTTTTTTTTTTTTTTTT DIIS        TELAPSE       18.07 TCPU       17.28
 DIIS TEST: 0.16219E-03 AT SCF   CYCLE  10 - DIIS ACTIVE - HISTORY:    10 CYCLES
 TTTTTTTTTTTTTTTTTTTTTTTTTTTTTT FDIK        TELAPSE       18.25 TCPU       17.46
 POSSIBLY CONDUCTING STATE - EFERMI(AU) -1.8644675E-01 (RES. CHARGE  2.30E-10;IT.  8)
 TTTTTTTTTTTTTTTTTTTTTTTTTTTTTT PDIG        TELAPSE       18.35 TCPU       17.55
 CHARGE NORMALIZATION FACTOR   1.00000000
 TOTAL ATOMIC CHARGES:
   5.9648418   5.9658905   6.0210788   6.0205821   5.9629291   5.9984806
   5.9634622   6.0067282   5.9943110   5.9976265   6.0256919   6.0336348
   6.0361007   6.0039706   6.0046713
 TTTTTTTTTTTTTTTTTTTTTTTTTTTTTT MOQGAD      TELAPSE       18.35 TCPU       17.55
 TTTTTTTTTTTTTTTTTTTTTTTTTTTTTT SHELLXN     TELAPSE       19.07 TCPU       18.27
 TTTTTTTTTTTTTTTTTTTTTTTTTTTTTT MONMO3      TELAPSE       19.17 TCPU       18.37
 NUMERICALLY INTEGRATED DENSITY     89.9998149815
 TTTTTTTTTTTTTTTTTTTTTTTTTTTTTT NUMDFT      TELAPSE       19.43 TCPU       18.63
 CYC  11 ETOT(AU) -5.704068991305E+02 DETOT  1.87E-05 tst  1.58E-06 PX  2.56E-03
 TTTTTTTTTTTTTTTTTTTTTTTTTTTTTT DIIS        TELAPSE       19.45 TCPU       18.65
 DIIS TEST: 0.27210E-03 AT SCF   CYCLE  11 - DIIS ACTIVE - HISTORY:    11 CYCLES
 TTTTTTTTTTTTTTTTTTTTTTTTTTTTTT FDIK        TELAPSE       19.63 TCPU       18.83
 POSSIBLY CONDUCTING STATE - EFERMI(AU) -1.8653383E-01 (RES. CHARGE  1.07E-10;IT.  8)
 TTTTTTTTTTTTTTTTTTTTTTTTTTTTTT PDIG        TELAPSE       19.73 TCPU       18.93
 CHARGE NORMALIZATION FACTOR   1.00000000
 TOTAL ATOMIC CHARGES:
   5.9649464   5.9651541   6.0205610   6.0199338   5.9626092   6.0041059
   5.9624151   6.0014365   6.0002068   5.9943395   6.0306446   6.0280635
   6.0344204   6.0056894   6.0054739
 TTTTTTTTTTTTTTTTTTTTTTTTTTTTTT MOQGAD      TELAPSE       19.73 TCPU       18.93
 TTTTTTTTTTTTTTTTTTTTTTTTTTTTTT SHELLXN     TELAPSE       20.44 TCPU       19.64
 TTTTTTTTTTTTTTTTTTTTTTTTTTTTTT MONMO3      TELAPSE       20.55 TCPU       19.75
 NUMERICALLY INTEGRATED DENSITY     89.9998152494
 TTTTTTTTTTTTTTTTTTTTTTTTTTTTTT NUMDFT      TELAPSE       20.82 TCPU       20.02
 CYC  12 ETOT(AU) -5.704069361628E+02 DETOT -3.70E-05 tst  4.10E-07 PX  2.34E-03
 TTTTTTTTTTTTTTTTTTTTTTTTTTTTTT DIIS        TELAPSE       20.91 TCPU       20.11
 DIIS TEST: 0.14841E-04 AT SCF   CYCLE  12 - DIIS ACTIVE - HISTORY:    12 CYCLES
 TTTTTTTTTTTTTTTTTTTTTTTTTTTTTT FDIK        TELAPSE       21.10 TCPU       20.30
 POSSIBLY CONDUCTING STATE - EFERMI(AU) -1.8655768E-01 (RES. CHARGE  5.68E-14;IT.  8)
 TTTTTTTTTTTTTTTTTTTTTTTTTTTTTT PDIG        TELAPSE       21.20 TCPU       20.39
 CHARGE NORMALIZATION FACTOR   1.00000000
 TOTAL ATOMIC CHARGES:
   5.9647778   5.9647461   6.0198671   6.0201509   5.9625509   6.0046212
   5.9627137   6.0008464   6.0012234   5.9943675   6.0283847   6.0301592
   6.0339952   6.0057037   6.0058922
 TTTTTTTTTTTTTTTTTTTTTTTTTTTTTT MOQGAD      TELAPSE       21.20 TCPU       20.39
 TTTTTTTTTTTTTTTTTTTTTTTTTTTTTT SHELLXN     TELAPSE       21.92 TCPU       21.11
 TTTTTTTTTTTTTTTTTTTTTTTTTTTTTT MONMO3      TELAPSE       22.02 TCPU       21.22
 NUMERICALLY INTEGRATED DENSITY     89.9998152599
 TTTTTTTTTTTTTTTTTTTTTTTTTTTTTT NUMDFT      TELAPSE       22.28 TCPU       21.47
 CYC  13 ETOT(AU) -5.704069378438E+02 DETOT -1.68E-06 tst  1.47E-07 PX  3.24E-04
 TTTTTTTTTTTTTTTTTTTTTTTTTTTTTT DIIS        TELAPSE       22.32 TCPU       21.52
 DIIS TEST: 0.61009E-05 AT SCF   CYCLE  13 - DIIS ACTIVE - HISTORY:    13 CYCLES
 TTTTTTTTTTTTTTTTTTTTTTTTTTTTTT FDIK        TELAPSE       22.51 TCPU       21.69
 POSSIBLY CONDUCTING STATE - EFERMI(AU) -1.8657070E-01 (RES. CHARGE  0.00E+00;IT.  8)
 TTTTTTTTTTTTTTTTTTTTTTTTTTTTTT PDIG        TELAPSE       22.61 TCPU       21.78
 CHARGE NORMALIZATION FACTOR   1.00000000
 TOTAL ATOMIC CHARGES:
   5.9645552   5.9645963   6.0199513   6.0198259   5.9628783   6.0054654
   5.9628595   6.0012513   6.0007129   5.9943286   6.0289418   6.0292321
   6.0337837   6.0058303   6.0057875
 TTTTTTTTTTTTTTTTTTTTTTTTTTTTTT MOQGAD      TELAPSE       22.61 TCPU       21.79
 TTTTTTTTTTTTTTTTTTTTTTTTTTTTTT SHELLXN     TELAPSE       23.33 TCPU       22.50
 TTTTTTTTTTTTTTTTTTTTTTTTTTTTTT MONMO3      TELAPSE       23.44 TCPU       22.61
 NUMERICALLY INTEGRATED DENSITY     89.9998152693
 TTTTTTTTTTTTTTTTTTTTTTTTTTTTTT NUMDFT      TELAPSE       23.69 TCPU       22.86
 CYC  14 ETOT(AU) -5.704069387333E+02 DETOT -8.89E-07 tst  2.38E-08 PX  1.74E-04
 TTTTTTTTTTTTTTTTTTTTTTTTTTTTTT DIIS        TELAPSE       23.72 TCPU       22.89
 DIIS TEST: 0.10301E-05 AT SCF   CYCLE  14 - DIIS ACTIVE - HISTORY:    14 CYCLES
 TTTTTTTTTTTTTTTTTTTTTTTTTTTTTT FDIK        TELAPSE       23.91 TCPU       23.07
 POSSIBLY CONDUCTING STATE - EFERMI(AU) -1.8656861E-01 (RES. CHARGE  2.20E-13;IT.  6)
 TTTTTTTTTTTTTTTTTTTTTTTTTTTTTT PDIG        TELAPSE       24.00 TCPU       23.17
 CHARGE NORMALIZATION FACTOR   1.00000000
 TOTAL ATOMIC CHARGES:
   5.9646465   5.9646697   6.0201805   6.0201175   5.9627849   6.0052290
   5.9627772   6.0011341   6.0010101   5.9938767   6.0291234   6.0292786
   6.0336921   6.0057524   6.0057274
 TTTTTTTTTTTTTTTTTTTTTTTTTTTTTT MOQGAD      TELAPSE       24.00 TCPU       23.17
 TTTTTTTTTTTTTTTTTTTTTTTTTTTTTT SHELLXN     TELAPSE       24.72 TCPU       23.88
 TTTTTTTTTTTTTTTTTTTTTTTTTTTTTT MONMO3      TELAPSE       24.83 TCPU       23.99
 NUMERICALLY INTEGRATED DENSITY     89.9998152662
 TTTTTTTTTTTTTTTTTTTTTTTTTTTTTT NUMDFT      TELAPSE       25.08 TCPU       24.25
 CYC  15 ETOT(AU) -5.704069388297E+02 DETOT -9.64E-08 tst  3.23E-09 PX  7.93E-05
 TTTTTTTTTTTTTTTTTTTTTTTTTTTTTT DIIS        TELAPSE       25.11 TCPU       24.27
 DIIS TEST: 0.33328E-06 AT SCF   CYCLE  15 - DIIS ACTIVE - HISTORY:    15 CYCLES
 TTTTTTTTTTTTTTTTTTTTTTTTTTTTTT FDIK        TELAPSE       25.29 TCPU       24.46
 POSSIBLY CONDUCTING STATE - EFERMI(AU) -1.8657504E-01 (RES. CHARGE  3.20E-10;IT.  6)
 TTTTTTTTTTTTTTTTTTTTTTTTTTTTTT PDIG        TELAPSE       25.39 TCPU       24.55
 CHARGE NORMALIZATION FACTOR   1.00000000
 TOTAL ATOMIC CHARGES:
   5.9646374   5.9646856   6.0200799   6.0200057   5.9626906   6.0054463
   5.9626968   6.0011284   6.0009069   5.9937993   6.0291599   6.0292780
   6.0338641   6.0058103   6.0058108
 TTTTTTTTTTTTTTTTTTTTTTTTTTTTTT MOQGAD      TELAPSE       25.39 TCPU       24.55
 TTTTTTTTTTTTTTTTTTTTTTTTTTTTTT SHELLXN     TELAPSE       26.10 TCPU       25.27
 TTTTTTTTTTTTTTTTTTTTTTTTTTTTTT MONMO3      TELAPSE       26.21 TCPU       25.37
 NUMERICALLY INTEGRATED DENSITY     89.9998152703
 TTTTTTTTTTTTTTTTTTTTTTTTTTTTTT NUMDFT      TELAPSE       26.47 TCPU       25.63
 CYC  16 ETOT(AU) -5.704069389889E+02 DETOT -1.59E-07 tst  2.99E-10 PX  4.08E-05
 TTTTTTTTTTTTTTTTTTTTTTTTTTTTTT DIIS        TELAPSE       26.49 TCPU       25.65
 DIIS TEST: 0.75724E-07 AT SCF   CYCLE  16 - DIIS ACTIVE - HISTORY:    16 CYCLES
 TTTTTTTTTTTTTTTTTTTTTTTTTTTTTT FDIK        TELAPSE       26.67 TCPU       25.84
 POSSIBLY CONDUCTING STATE - EFERMI(AU) -1.8657653E-01 (RES. CHARGE  4.83E-13;IT.  6)
 TTTTTTTTTTTTTTTTTTTTTTTTTTTTTT PDIG        TELAPSE       26.77 TCPU       25.93
 CHARGE NORMALIZATION FACTOR   1.00000000
 TOTAL ATOMIC CHARGES:
   5.9646356   5.9646637   6.0200897   6.0199951   5.9627252   6.0053834
   5.9627039   6.0011555   6.0009918   5.9937504   6.0291703   6.0292406
   6.0338837   6.0058238   6.0057874
 TTTTTTTTTTTTTTTTTTTTTTTTTTTTTT MOQGAD      TELAPSE       26.77 TCPU       25.94
 TTTTTTTTTTTTTTTTTTTTTTTTTTTTTT SHELLXN     TELAPSE       27.49 TCPU       26.65
 TTTTTTTTTTTTTTTTTTTTTTTTTTTTTT MONMO3      TELAPSE       27.60 TCPU       26.76
 NUMERICALLY INTEGRATED DENSITY     89.9998152707
 TTTTTTTTTTTTTTTTTTTTTTTTTTTTTT NUMDFT      TELAPSE       27.85 TCPU       27.01
 CYC  17 ETOT(AU) -5.704069389966E+02 DETOT -7.79E-09 tst  4.19E-10 PX  1.89E-05
 TTTTTTTTTTTTTTTTTTTTTTTTTTTTTT DIIS        TELAPSE       27.88 TCPU       27.04
 DIIS TEST: 0.32448E-07 AT SCF   CYCLE  17 - DIIS ACTIVE - HISTORY:    17 CYCLES
 TTTTTTTTTTTTTTTTTTTTTTTTTTTTTT FDIK        TELAPSE       28.06 TCPU       27.22
 POSSIBLY CONDUCTING STATE - EFERMI(AU) -1.8657779E-01 (RES. CHARGE  1.28E-13;IT.  6)
 TTTTTTTTTTTTTTTTTTTTTTTTTTTTTT PDIG        TELAPSE       28.16 TCPU       27.32
 CHARGE NORMALIZATION FACTOR   1.00000000
 TOTAL ATOMIC CHARGES:
   5.9646259   5.9646655   6.0200802   6.0200034   5.9627163   6.0054250
   5.9627114   6.0011408   6.0010062   5.9937216   6.0291936   6.0292131
   6.0338766   6.0058172   6.0058032
 TTTTTTTTTTTTTTTTTTTTTTTTTTTTTT MOQGAD      TELAPSE       28.16 TCPU       27.32
 TTTTTTTTTTTTTTTTTTTTTTTTTTTTTT SHELLXN     TELAPSE       28.87 TCPU       28.03
 TTTTTTTTTTTTTTTTTTTTTTTTTTTTTT MONMO3      TELAPSE       28.98 TCPU       28.14
 NUMERICALLY INTEGRATED DENSITY     89.9998152714
 TTTTTTTTTTTTTTTTTTTTTTTTTTTTTT NUMDFT      TELAPSE       29.24 TCPU       28.39
 CYC  18 ETOT(AU) -5.704069390290E+02 DETOT -3.24E-08 tst  5.18E-11 PX  7.92E-06
 TTTTTTTTTTTTTTTTTTTTTTTTTTTTTT DIIS        TELAPSE       29.26 TCPU       28.42
 DIIS TEST: 0.11185E-07 AT SCF   CYCLE  18 - DIIS ACTIVE - HISTORY:    18 CYCLES
 TTTTTTTTTTTTTTTTTTTTTTTTTTTTTT FDIK        TELAPSE       29.45 TCPU       28.60
 POSSIBLY CONDUCTING STATE - EFERMI(AU) -1.8657909E-01 (RES. CHARGE  2.27E-13;IT.  6)
 TTTTTTTTTTTTTTTTTTTTTTTTTTTTTT PDIG        TELAPSE       29.54 TCPU       28.70
 CHARGE NORMALIZATION FACTOR   1.00000000
 TOTAL ATOMIC CHARGES:
   5.9646266   5.9646594   6.0200856   6.0199962   5.9627132   6.0054671
   5.9626988   6.0011307   6.0010103   5.9936949   6.0291978   6.0292129
   6.0338706   6.0058315   6.0058046
 TTTTTTTTTTTTTTTTTTTTTTTTTTTTTT MOQGAD      TELAPSE       29.54 TCPU       28.70
 TTTTTTTTTTTTTTTTTTTTTTTTTTTTTT SHELLXN     TELAPSE       30.26 TCPU       29.41
 TTTTTTTTTTTTTTTTTTTTTTTTTTTTTT MONMO3      TELAPSE       30.37 TCPU       29.52
 NUMERICALLY INTEGRATED DENSITY     89.9998152721
 TTTTTTTTTTTTTTTTTTTTTTTTTTTTTT NUMDFT      TELAPSE       30.62 TCPU       29.77
 CYC  19 ETOT(AU) -5.704069390606E+02 DETOT -3.16E-08 tst  3.41E-11 PX  9.43E-06
 TTTTTTTTTTTTTTTTTTTTTTTTTTTTTT DIIS        TELAPSE       30.65 TCPU       29.80
 DIIS TEST: 0.12755E-08 AT SCF   CYCLE  19 - DIIS ACTIVE - HISTORY:    19 CYCLES
 TTTTTTTTTTTTTTTTTTTTTTTTTTTTTT FDIK        TELAPSE       30.83 TCPU       29.98
 POSSIBLY CONDUCTING STATE - EFERMI(AU) -1.8657982E-01 (RES. CHARGE  4.26E-13;IT.  6)
 TTTTTTTTTTTTTTTTTTTTTTTTTTTTTT PDIG        TELAPSE       30.93 TCPU       30.08
 CHARGE NORMALIZATION FACTOR   1.00000000
 TOTAL ATOMIC CHARGES:
   5.9646236   5.9646562   6.0200800   6.0199979   5.9627111   6.0054760
   5.9626967   6.0011282   6.0010176   5.9936905   6.0292053   6.0292027
   6.0338708   6.0058352   6.0058080
 TTTTTTTTTTTTTTTTTTTTTTTTTTTTTT MOQGAD      TELAPSE       30.93 TCPU       30.08
 TTTTTTTTTTTTTTTTTTTTTTTTTTTTTT SHELLXN     TELAPSE       31.64 TCPU       30.79
 TTTTTTTTTTTTTTTTTTTTTTTTTTTTTT MONMO3      TELAPSE       31.75 TCPU       30.90
 NUMERICALLY INTEGRATED DENSITY     89.9998152725
 TTTTTTTTTTTTTTTTTTTTTTTTTTTTTT NUMDFT      TELAPSE       32.01 TCPU       31.16
 CYC  20 ETOT(AU) -5.704069390690E+02 DETOT -8.48E-09 tst  3.67E-12 PX  2.27E-06
 TTTTTTTTTTTTTTTTTTTTTTTTTTTTTT DIIS        TELAPSE       32.03 TCPU       31.18
 DIIS TEST: 0.17679E-09 AT SCF   CYCLE  20 - DIIS ACTIVE - HISTORY:    19 CYCLES
 TTTTTTTTTTTTTTTTTTTTTTTTTTTTTT FDIK        TELAPSE       32.22 TCPU       31.36
 POSSIBLY CONDUCTING STATE - EFERMI(AU) -1.8658004E-01 (RES. CHARGE  1.42E-14;IT.  6)
 TTTTTTTTTTTTTTTTTTTTTTTTTTTTTT PDIG        TELAPSE       32.32 TCPU       31.46
 CHARGE NORMALIZATION FACTOR   1.00000000
 TOTAL ATOMIC CHARGES:
   5.9646231   5.9646564   6.0200826   6.0199951   5.9627105   6.0054815
   5.9626966   6.0011244   6.0010195   5.9936892   6.0292059   6.0292016
   6.0338698   6.0058350   6.0058089
 TTTTTTTTTTTTTTTTTTTTTTTTTTTTTT MOQGAD      TELAPSE       32.32 TCPU       31.46
 TTTTTTTTTTTTTTTTTTTTTTTTTTTTTT SHELLXN     TELAPSE       33.03 TCPU       32.18
 TTTTTTTTTTTTTTTTTTTTTTTTTTTTTT MONMO3      TELAPSE       33.14 TCPU       32.28
 NUMERICALLY INTEGRATED DENSITY     89.9998152726
 TTTTTTTTTTTTTTTTTTTTTTTTTTTTTT NUMDFT      TELAPSE       33.39 TCPU       32.54
 CYC  21 ETOT(AU) -5.704069390724E+02 DETOT -3.39E-09 tst  3.67E-13 PX  1.09E-06
 TTTTTTTTTTTTTTTTTTTTTTTTTTTTTT DIIS        TELAPSE       33.42 TCPU       32.57
 DIIS TEST: 0.20607E-10 AT SCF   CYCLE  21 - DIIS ACTIVE - HISTORY:    20 CYCLES
 TTTTTTTTTTTTTTTTTTTTTTTTTTTTTT FDIK        TELAPSE       33.61 TCPU       32.75
 POSSIBLY CONDUCTING STATE - EFERMI(AU) -1.8658014E-01 (RES. CHARGE  2.89E-10;IT.  4)
 TTTTTTTTTTTTTTTTTTTTTTTTTTTTTT PDIG        TELAPSE       33.70 TCPU       32.85
 CHARGE NORMALIZATION FACTOR   1.00000000
 TOTAL ATOMIC CHARGES:
   5.9646233   5.9646563   6.0200818   6.0199959   5.9627105   6.0054850
   5.9626963   6.0011232   6.0010187   5.9936886   6.0292071   6.0292003
   6.0338690   6.0058353   6.0058088
 TTTTTTTTTTTTTTTTTTTTTTTTTTTTTT MOQGAD      TELAPSE       33.70 TCPU       32.85
 TTTTTTTTTTTTTTTTTTTTTTTTTTTTTT SHELLXN     TELAPSE       34.42 TCPU       33.56
 TTTTTTTTTTTTTTTTTTTTTTTTTTTTTT MONMO3      TELAPSE       34.53 TCPU       33.67
 NUMERICALLY INTEGRATED DENSITY     89.9998152727
 TTTTTTTTTTTTTTTTTTTTTTTTTTTTTT NUMDFT      TELAPSE       34.78 TCPU       33.92
 CYC  22 ETOT(AU) -5.704069390722E+02 DETOT  2.03E-10 tst  1.57E-13 PX  6.92E-07
 TTTTTTTTTTTTTTTTTTTTTTTTTTTTTT DIIS        TELAPSE       34.81 TCPU       33.95
 DIIS TEST: 0.17666E-11 AT SCF   CYCLE  22 - DIIS ACTIVE - HISTORY:    21 CYCLES
 TTTTTTTTTTTTTTTTTTTTTTTTTTTTTT FDIK        TELAPSE       35.00 TCPU       34.13
 POSSIBLY CONDUCTING STATE - EFERMI(AU) -1.8658008E-01 (RES. CHARGE  5.66E-11;IT.  4)
 TTTTTTTTTTTTTTTTTTTTTTTTTTTTTT PDIG        TELAPSE       35.09 TCPU       34.23
 CHARGE NORMALIZATION FACTOR   1.00000000
 TOTAL ATOMIC CHARGES:
   5.9646233   5.9646563   6.0200819   6.0199959   5.9627106   6.0054835
   5.9626964   6.0011235   6.0010189   5.9936890   6.0292071   6.0292005
   6.0338693   6.0058352   6.0058087
 TTTTTTTTTTTTTTTTTTTTTTTTTTTTTT MOQGAD      TELAPSE       35.09 TCPU       34.23
 TTTTTTTTTTTTTTTTTTTTTTTTTTTTTT SHELLXN     TELAPSE       35.81 TCPU       34.94
 +++ ENERGIES IN A.U. +++
 ::: EXT EL-POLE                                  -8.0036857634001E+02
 ::: EXT EL-SPHEROPOLE                             6.3246380898756E+00
 ::: BIELET ZONE E-E                               1.1891567426963E+03
 ::: TOTAL E-E                                     3.9511280444615E+02
 ::: TOTAL E-N + N-E                              -1.5691892964099E+03
 ::: TOTAL N-N                                     1.1707961245289E+02
 ::: KINETIC ENERGY                                5.6668288235788E+02
 ::: PSEUDO TOTAL   ENERGY                        -4.9031399715301E+02
 ::: VIRIAL COEFFICIENT                            1.0722508142505E+00
 TTTTTTTTTTTTTTTTTTTTTTTTTTTTTT MONMO3      TELAPSE       35.91 TCPU       35.05
 NUMERICALLY INTEGRATED DENSITY     89.9998152726
 TTTTTTTTTTTTTTTTTTTTTTTTTTTTTT NUMDFT      TELAPSE       36.26 TCPU       35.40
 CYC  23 ETOT(AU) -5.704069390727E+02 DETOT -5.33E-10 tst  1.31E-14 PX  6.92E-07

 == SCF ENDED - CONVERGENCE ON ENERGY      E(AU) -5.7040693907275E+02 CYCLES  23


 ENERGY EXPRESSION=HARTREE+FOCK EXCH*0.00000+(PBE        EXCH)*1.00000+PBE        CORR


 TOTAL ENERGY(DFT)(AU)( 23) -5.7040693907275E+02 DE-5.3E-10 tester 1.3E-14
 TTTTTTTTTTTTTTTTTTTTTTTTTTTTTT EDFT        TELAPSE       36.28 TCPU       35.42
 EIGENVECTORS IN FORTRAN UNIT 10
 TTTTTTTTTTTTTTTTTTTTTTTTTTTTTT END         TELAPSE       36.41 TCPU       35.55
 EEEEEEEEEE TERMINATION  DATE 31 10 2022 TIME 17:24:21.9
NODE    0 CPU TIME =        35.548
    TOTAL CPU TIME =      4449.305
Note: The following floating-point exceptions are signalling: IEEE_UNDERFLOW_FLAG IEEE_DENORMAL
Note: The following floating-point exceptions are signalling: IEEE_UNDERFLOW_FLAG IEEE_DENORMAL
Note: The following floating-point exceptions are signalling: IEEE_UNDERFLOW_FLAG IEEE_DENORMAL
Note: The following floating-point exceptions are signalling: IEEE_UNDERFLOW_FLAG IEEE_DENORMAL
Note: The following floating-point exceptions are signalling: IEEE_UNDERFLOW_FLAG IEEE_DENORMAL
Note: The following floating-point exceptions are signalling: IEEE_UNDERFLOW_FLAG IEEE_DENORMAL
Note: The following floating-point exceptions are signalling: IEEE_UNDERFLOW_FLAG IEEE_DENORMAL
Note: The following floating-point exceptions are signalling: IEEE_UNDERFLOW_FLAG IEEE_DENORMAL
Note: The following floating-point exceptions are signalling: IEEE_UNDERFLOW_FLAG IEEE_DENORMAL
Note: The following floating-point exceptions are signalling: IEEE_UNDERFLOW_FLAG IEEE_DENORMAL
Note: The following floating-point exceptions are signalling: IEEE_UNDERFLOW_FLAG IEEE_DENORMAL
Note: The following floating-point exceptions are signalling: IEEE_UNDERFLOW_FLAG IEEE_DENORMAL
Note: The following floating-point exceptions are signalling: IEEE_UNDERFLOW_FLAG IEEE_DENORMAL
Note: The following floating-point exceptions are signalling: IEEE_UNDERFLOW_FLAG IEEE_DENORMAL
Note: The following floating-point exceptions are signalling: IEEE_UNDERFLOW_FLAG IEEE_DENORMAL
Note: The following floating-point exceptions are signalling: IEEE_UNDERFLOW_FLAG IEEE_DENORMAL
Note: The following floating-point exceptions are signalling: IEEE_UNDERFLOW_FLAG IEEE_DENORMAL
Note: The following floating-point exceptions are signalling: IEEE_UNDERFLOW_FLAG IEEE_DENORMAL
Note: The following floating-point exceptions are signalling: IEEE_UNDERFLOW_FLAG IEEE_DENORMAL
Note: The following floating-point exceptions are signalling: IEEE_UNDERFLOW_FLAG IEEE_DENORMAL
Note: The following floating-point exceptions are signalling: IEEE_UNDERFLOW_FLAG IEEE_DENORMAL
Note: The following floating-point exceptions are signalling: IEEE_UNDERFLOW_FLAG IEEE_DENORMAL
Note: The following floating-point exceptions are signalling: IEEE_UNDERFLOW_FLAG IEEE_DENORMAL
Note: The following floating-point exceptions are signalling: IEEE_UNDERFLOW_FLAG IEEE_DENORMAL
Note: The following floating-point exceptions are signalling: IEEE_UNDERFLOW_FLAG IEEE_DENORMAL
Note: The following floating-point exceptions are signalling: IEEE_UNDERFLOW_FLAG IEEE_DENORMAL
Note: The following floating-point exceptions are signalling: IEEE_UNDERFLOW_FLAG IEEE_DENORMAL
Note: The following floating-point exceptions are signalling: IEEE_UNDERFLOW_FLAG IEEE_DENORMAL
Note: The following floating-point exceptions are signalling: IEEE_UNDERFLOW_FLAG IEEE_DENORMAL
Note: The following floating-point exceptions are signalling: IEEE_UNDERFLOW_FLAG IEEE_DENORMAL
Note: The following floating-point exceptions are signalling: IEEE_UNDERFLOW_FLAG IEEE_DENORMAL
Note: The following floating-point exceptions are signalling: IEEE_UNDERFLOW_FLAG IEEE_DENORMAL
Note: The following floating-point exceptions are signalling: IEEE_UNDERFLOW_FLAG IEEE_DENORMAL
Note: The following floating-point exceptions are signalling: IEEE_UNDERFLOW_FLAG IEEE_DENORMAL
Note: The following floating-point exceptions are signalling: IEEE_UNDERFLOW_FLAG IEEE_DENORMAL
Note: The following floating-point exceptions are signalling: IEEE_UNDERFLOW_FLAG IEEE_DENORMAL
Note: The following floating-point exceptions are signalling: IEEE_UNDERFLOW_FLAG IEEE_DENORMAL
Note: The following floating-point exceptions are signalling: IEEE_UNDERFLOW_FLAG IEEE_DENORMAL
Note: The following floating-point exceptions are signalling: IEEE_UNDERFLOW_FLAG IEEE_DENORMAL
Note: The following floating-point exceptions are signalling: IEEE_UNDERFLOW_FLAG IEEE_DENORMAL
Note: The following floating-point exceptions are signalling: IEEE_UNDERFLOW_FLAG IEEE_DENORMAL
Note: The following floating-point exceptions are signalling: IEEE_UNDERFLOW_FLAG IEEE_DENORMAL
Note: The following floating-point exceptions are signalling: IEEE_UNDERFLOW_FLAG IEEE_DENORMAL
Note: The following floating-point exceptions are signalling: IEEE_UNDERFLOW_FLAG IEEE_DENORMAL
Note: The following floating-point exceptions are signalling: IEEE_UNDERFLOW_FLAG IEEE_DENORMAL
Note: The following floating-point exceptions are signalling: IEEE_UNDERFLOW_FLAG IEEE_DENORMAL
Note: The following floating-point exceptions are signalling: IEEE_UNDERFLOW_FLAG IEEE_DENORMAL
Note: The following floating-point exceptions are signalling: IEEE_UNDERFLOW_FLAG IEEE_DENORMAL
Note: The following floating-point exceptions are signalling: IEEE_UNDERFLOW_FLAG IEEE_DENORMAL
Note: The following floating-point exceptions are signalling: IEEE_UNDERFLOW_FLAG IEEE_DENORMAL
Note: The following floating-point exceptions are signalling: IEEE_UNDERFLOW_FLAG IEEE_DENORMAL
Note: The following floating-point exceptions are signalling: IEEE_UNDERFLOW_FLAG IEEE_DENORMAL
Note: The following floating-point exceptions are signalling: IEEE_UNDERFLOW_FLAG IEEE_DENORMAL
Note: The following floating-point exceptions are signalling: IEEE_UNDERFLOW_FLAG IEEE_DENORMAL
Note: The following floating-point exceptions are signalling: IEEE_UNDERFLOW_FLAG IEEE_DENORMAL
Note: The following floating-point exceptions are signalling: IEEE_UNDERFLOW_FLAG IEEE_DENORMAL
Note: The following floating-point exceptions are signalling: IEEE_UNDERFLOW_FLAG IEEE_DENORMAL
Note: The following floating-point exceptions are signalling: IEEE_UNDERFLOW_FLAG IEEE_DENORMAL
Note: The following floating-point exceptions are signalling: IEEE_UNDERFLOW_FLAG IEEE_DENORMAL
Note: The following floating-point exceptions are signalling: IEEE_UNDERFLOW_FLAG IEEE_DENORMAL
Note: The following floating-point exceptions are signalling: IEEE_UNDERFLOW_FLAG IEEE_DENORMAL
Note: The following floating-point exceptions are signalling: IEEE_UNDERFLOW_FLAG IEEE_DENORMAL
Note: The following floating-point exceptions are signalling: IEEE_UNDERFLOW_FLAG IEEE_DENORMAL
Note: The following floating-point exceptions are signalling: IEEE_UNDERFLOW_FLAG IEEE_DENORMAL
Note: The following floating-point exceptions are signalling: IEEE_UNDERFLOW_FLAG IEEE_DENORMAL
Note: The following floating-point exceptions are signalling: IEEE_UNDERFLOW_FLAG IEEE_DENORMAL
Note: The following floating-point exceptions are signalling: IEEE_UNDERFLOW_FLAG IEEE_DENORMAL
Note: The following floating-point exceptions are signalling: IEEE_UNDERFLOW_FLAG IEEE_DENORMAL
Note: The following floating-point exceptions are signalling: IEEE_UNDERFLOW_FLAG IEEE_DENORMAL
Note: The following floating-point exceptions are signalling: IEEE_UNDERFLOW_FLAG IEEE_DENORMAL
Note: The following floating-point exceptions are signalling: IEEE_UNDERFLOW_FLAG IEEE_DENORMAL
Note: The following floating-point exceptions are signalling: IEEE_UNDERFLOW_FLAG IEEE_DENORMAL
Note: The following floating-point exceptions are signalling: IEEE_UNDERFLOW_FLAG IEEE_DENORMAL
Note: The following floating-point exceptions are signalling: IEEE_UNDERFLOW_FLAG IEEE_DENORMAL
Note: The following floating-point exceptions are signalling: IEEE_UNDERFLOW_FLAG IEEE_DENORMAL
Note: The following floating-point exceptions are signalling: IEEE_UNDERFLOW_FLAG IEEE_DENORMAL
Note: The following floating-point exceptions are signalling: IEEE_UNDERFLOW_FLAG IEEE_DENORMAL
Note: The following floating-point exceptions are signalling: IEEE_UNDERFLOW_FLAG IEEE_DENORMAL
Note: The following floating-point exceptions are signalling: IEEE_UNDERFLOW_FLAG IEEE_DENORMAL
Note: The following floating-point exceptions are signalling: IEEE_UNDERFLOW_FLAG IEEE_DENORMAL
Note: The following floating-point exceptions are signalling: IEEE_UNDERFLOW_FLAG IEEE_DENORMAL
Note: The following floating-point exceptions are signalling: IEEE_UNDERFLOW_FLAG IEEE_DENORMAL
Note: The following floating-point exceptions are signalling: IEEE_UNDERFLOW_FLAG IEEE_DENORMAL
Note: The following floating-point exceptions are signalling: IEEE_UNDERFLOW_FLAG IEEE_DENORMAL
Note: The following floating-point exceptions are signalling: IEEE_UNDERFLOW_FLAG IEEE_DENORMAL
Note: The following floating-point exceptions are signalling: IEEE_UNDERFLOW_FLAG IEEE_DENORMAL
Note: The following floating-point exceptions are signalling: IEEE_UNDERFLOW_FLAG IEEE_DENORMAL
Note: The following floating-point exceptions are signalling: IEEE_UNDERFLOW_FLAG IEEE_DENORMAL
Note: The following floating-point exceptions are signalling: IEEE_UNDERFLOW_FLAG IEEE_DENORMAL
Note: The following floating-point exceptions are signalling: IEEE_UNDERFLOW_FLAG IEEE_DENORMAL
Note: The following floating-point exceptions are signalling: IEEE_UNDERFLOW_FLAG IEEE_DENORMAL
Note: The following floating-point exceptions are signalling: IEEE_UNDERFLOW_FLAG IEEE_DENORMAL
Note: The following floating-point exceptions are signalling: IEEE_UNDERFLOW_FLAG IEEE_DENORMAL
Note: The following floating-point exceptions are signalling: IEEE_UNDERFLOW_FLAG IEEE_DENORMAL
Note: The following floating-point exceptions are signalling: IEEE_UNDERFLOW_FLAG IEEE_DENORMAL
Note: The following floating-point exceptions are signalling: IEEE_UNDERFLOW_FLAG IEEE_DENORMAL
Note: The following floating-point exceptions are signalling: IEEE_UNDERFLOW_FLAG IEEE_DENORMAL
Note: The following floating-point exceptions are signalling: IEEE_UNDERFLOW_FLAG IEEE_DENORMAL
Note: The following floating-point exceptions are signalling: IEEE_UNDERFLOW_FLAG IEEE_DENORMAL
Note: The following floating-point exceptions are signalling: IEEE_UNDERFLOW_FLAG IEEE_DENORMAL
Note: The following floating-point exceptions are signalling: IEEE_UNDERFLOW_FLAG IEEE_DENORMAL
Note: The following floating-point exceptions are signalling: IEEE_UNDERFLOW_FLAG IEEE_DENORMAL
Note: The following floating-point exceptions are signalling: IEEE_UNDERFLOW_FLAG IEEE_DENORMAL
Note: The following floating-point exceptions are signalling: IEEE_UNDERFLOW_FLAG IEEE_DENORMAL
Note: The following floating-point exceptions are signalling: IEEE_UNDERFLOW_FLAG IEEE_DENORMAL
Note: The following floating-point exceptions are signalling: IEEE_UNDERFLOW_FLAG IEEE_DENORMAL
Note: The following floating-point exceptions are signalling: IEEE_UNDERFLOW_FLAG IEEE_DENORMAL
Note: The following floating-point exceptions are signalling: IEEE_UNDERFLOW_FLAG IEEE_DENORMAL
Note: The following floating-point exceptions are signalling: IEEE_UNDERFLOW_FLAG IEEE_DENORMAL
Note: The following floating-point exceptions are signalling: IEEE_UNDERFLOW_FLAG IEEE_DENORMAL
Note: The following floating-point exceptions are signalling: IEEE_UNDERFLOW_FLAG IEEE_DENORMAL
Note: The following floating-point exceptions are signalling: IEEE_UNDERFLOW_FLAG IEEE_DENORMAL
Note: The following floating-point exceptions are signalling: IEEE_UNDERFLOW_FLAG IEEE_DENORMAL
Note: The following floating-point exceptions are signalling: IEEE_UNDERFLOW_FLAG IEEE_DENORMAL
Note: The following floating-point exceptions are signalling: IEEE_UNDERFLOW_FLAG IEEE_DENORMAL
Note: The following floating-point exceptions are signalling: IEEE_UNDERFLOW_FLAG IEEE_DENORMAL
Note: The following floating-point exceptions are signalling: IEEE_UNDERFLOW_FLAG IEEE_DENORMAL
Note: The following floating-point exceptions are signalling: IEEE_UNDERFLOW_FLAG IEEE_DENORMAL
Note: The following floating-point exceptions are signalling: IEEE_UNDERFLOW_FLAG IEEE_DENORMAL
Note: The following floating-point exceptions are signalling: IEEE_UNDERFLOW_FLAG IEEE_DENORMAL
Note: The following floating-point exceptions are signalling: IEEE_UNDERFLOW_FLAG IEEE_DENORMAL
Note: The following floating-point exceptions are signalling: IEEE_UNDERFLOW_FLAG IEEE_DENORMAL
Note: The following floating-point exceptions are signalling: IEEE_UNDERFLOW_FLAG IEEE_DENORMAL
Note: The following floating-point exceptions are signalling: IEEE_UNDERFLOW_FLAG IEEE_DENORMAL
Note: The following floating-point exceptions are signalling: IEEE_UNDERFLOW_FLAG IEEE_DENORMAL
Note: The following floating-point exceptions are signalling: IEEE_UNDERFLOW_FLAG IEEE_DENORMAL
Note: The following floating-point exceptions are signalling: IEEE_UNDERFLOW_FLAG IEEE_DENORMAL
Note: The following floating-point exceptions are signalling: IEEE_UNDERFLOW_FLAG IEEE_DENORMAL
end_date Mon Oct 31 17:24:22 GMT 2022
 
TEMPORARY          SAVED (in /mnt/lustre/a2fs-work2/work/e05/e05/bcamino/quantum_computing/test_model)
fort.34            graphene_3v_M.gui 1311     Oct 31 17:24
fort.9             graphene_3v_M.f9  1357256  Oct 31 17:24
fort.98            graphene_3v_M.f98 3546443  Oct 31 17:24
 
Disk usage:<du -m>
575	/mnt/lustre/a2fs-work2/work/e05/e05/bcamino/quantum_computing/test_model/tmp_graphene_3v_M_
</du -m>
Filesystem                                          1K-blocks          Used     Available Use% Mounted on
10.253.102.2@o2ib1:10.253.102.3@o2ib1:/cls01097 3582178503216 1809161204280 1736823587604  52% /mnt/lustre/a2fs-work2
10.253.102.2@o2ib1:10.253.102.3@o2ib1:/cls01097 3582178503216 1809161204280 1736823587604  52% /mnt/lustre/a2fs-work2
