date:                Mon Oct 31 17:11:44 GMT 2022
hostname:            nid002533
system:              Linux nid002533 4.12.14-197.78_9.1.64-cray_shasta_c #1 SMP Wed Aug 25 14:56:40 UTC 2021 (4e2a900) x86_64 x86_64 x86_64 GNU/Linux
user:                bcamino
input:               /mnt/lustre/a2fs-work2/work/e05/e05/bcamino/quantum_computing/test_model/graphene_1v_A.d12
output:              /mnt/lustre/a2fs-work2/work/e05/e05/bcamino/quantum_computing/test_model/graphene_1v_A.out
executable script:   /work/e05/e05/bcamino/runCRYSTAL/Pcry_slurm
executable:          Pcrystal
Command:             srun --hint=nomultithread --distribution=block:block Pcrystal
Slurm JobID:         
temporary directory: /mnt/lustre/a2fs-work2/work/e05/e05/bcamino/quantum_computing/test_model/tmp_graphene_1v_A_      
input data /mnt/lustre/a2fs-work2/work/e05/e05/bcamino/quantum_computing/test_model/graphene_1v_A.d12
Final
EXTERNAL
SYMMREMO
END
6 8
0 0 6 2.0 1.0
  13575.349682      0.00022245814352
  2035.2333680      0.00172327382520
  463.22562359      0.00892557153140
  131.20019598      0.03572798450200
  42.853015891      0.11076259931000
  15.584185766      0.24295627626000
0 0 2 2.0 1.0
  6.2067138508      0.41440263448000
  2.5764896527      0.23744968655000
0 0 1 0.0 1.0
  0.4941102000      1.00000000000000
0 0 1 0.0 1.0
  0.1644071000      1.00000000000000
0 2 4 2.0 1.0
  34.697232244      0.00533336578050
  7.9582622826      0.03586410909200
  2.3780826883      0.14215873329000
  0.8143320818      0.34270471845000
0 2 1 0.0 1.0
  0.5662417100      1.00000000000000
0 2 1 0.0 1.0
  0.1973545000      1.00000000000000
0 3 1 0.0 1.0
  0.5791584200      1.00000000000000
99 0
ENDBS
DFT
PBE  
ENDDFT
TOLINTEG
8 8 8 8 16
SCFDIR
SHRINK
8 16  
MAXCYCLE
200
TOLDEE
9 
ENDSCF
input data /mnt/lustre/a2fs-work2/work/e05/e05/bcamino/quantum_computing/test_model/graphene_1v_A.gui
         128 PROCESSORS WORKING

         
 *******************************************************************************
 *                                                                             *
 *                               CRYSTAL17                                     *
 *                      public : 1.0.2 - March 1st, 2018 STFC/Archer2 build    *
 *                       HTTP://WWW.CRYSTAL.UNITO.IT                           *
 *                                                                             *
 *                              MAIN AUTHORS                                   *
 *                                                                             *
 *  R. DOVESI(1,11), V.R. SAUNDERS(2), C. ROETTI(1,11), R. ORLANDO(1,11),      *
 *  C.M. ZICOVICH-WILSON(1,3), F. PASCALE(4), B. CIVALLERI(1,11),              *
 *  K. DOLL(5), N.M. HARRISON(2,6), I.J. BUSH(7), Ph. D'ARCO(8),               *
 *  M. LLUNELL(9), M. CAUSA'(10), Y. NOEL(8), L. MASCHIO(1,11), A. ERBA(1,11)  *
 *  M. RE'RAT(14), S. CASASSA(1,11)                                            *
 *                                                                             *
 *        CONTRIBUTIONS TO THE CODE HAVE ALSO BEEN GIVEN BY                    *
 *                                                                             *
 *  M. FERRABONE(1,11), M. DE LA PIERRE(1,11), M. FERRERO(1,11),               *
 *  J. BAIMA(1,11), E. ALBANESE(1,11), M.F. PEINTINGER(12), R. BAST(13),       *
 *  B. KIRTMAN(15), V. LACIVITA(1,11), R. DEMICHELIS(1,16)                     *
 *  G. BRANDEBURG(17), S. SALUSTRO(1,11), G. SANSONE(1,11)                     *
 *  M.T. RUGGIERO(18)                                                          *
 *                                                                             *
 * (1) THEORETICAL CHEMISTRY GROUP - UNIVERSITA' DI TORINO - TORINO (ITALY)    *
 * (2) COMPUTATIONAL SCIENCE & ENGINEERING DEPARTMENT - STFC DARESBURY (UK)    *
 * (3) UNIVERSIDAD AUTONOMA DEL ESTADO DE MORELOS - CUERNAVACA (MEXICO)        *
 * (4) UNIVERSITE' DE LORRAINE - NANCY (FRANCE)                                *
 * (5) UNIVERSITAET STUTTGART- STUTTGART (GERMANY)                             *
 * (6) IMPERIAL COLLEGE - LONDON (UK)                                          *
 * (7) OXFORD E-RESEARCH CENTRE - OXFORD (UK)                                  *
 * (8) UPMC - SORBONNE UNIVERSITES - PARIS (FRANCE)                            *
 * (9) UNIVERSIDAD DE BARCELONA - BARCELONA (SPAIN)                            *
 *(10) UNIVERSITA' DI NAPOLI "FEDERICO II" - NAPOLI (ITALY)                    *
 *(11) NIS - NANOSTRUCTURED INTERFACES AND SURFACES - TORINO (ITALY)           *
 *(12) MPI FUER CHEMISCHE ENERGIEKONVERSION - MUELHEIM AN DER RUHR (GERMANY)   *
 *(13) UNIVERSITY OF TROMSO - TROMSO (NORWAY)                                  *
 *(14) UNIVERSITE' DE PAU ET DES PAYS DE L'ADOUR - PAU (FRANCE)                *
 *(15) UNIVERSITY OF CALIFORNIA SANTA BARBARA - SANTA BARBARA (USA)            *
 *(16) CURTIN UNIVERSITY - PERTH (AUSTRALIA)                                   *
 *(17) UNIVERSITY COLLEGE LONDON - LONDON (UK)                                 *
 *(18) CAMBRIDGE UNIVERSITY - CAMBRIDGE (UK)                                   *
 *                                                                             *
 *******************************************************************************
 EEEEEEEEEE STARTING  DATE 31 10 2022 TIME 17:11:48.0
 Final                                                                           

 GEOMETRY INPUT FROM EXTERNAL FILE (FORTRAN UNIT 34)
 3D - CRYSTAL 

 *******************************************************************************
 LATTICE PARAMETERS  (ANGSTROMS AND DEGREES) - PRIMITIVE CELL
       A          B          C        ALPHA      BETA     GAMMA        VOLUME
    7.40317    7.40317    8.68504    90.00000  90.00000 120.00000    412.228566
 INFORMATION **** CHKGRP **** SPGR WITH NO INVERSION

 NUMBER OF IRREDUCIBLE ATOMS IN THE CELL:   17

 CARTESIAN COORDINATES (ANGSTROM) - IRREDUCIBLE ATOMS AND SYMMETRY RELATED

 AT.IRR.  AT  AT.N.          X                   Y                   Z
     1     1     6    1.233862070683E+00  7.123705986520E-01  2.605511400000E+00
     2     2     6    2.467724141366E+00  2.849482394607E+00  2.605511400000E+00
     3     3     6    3.701586212049E+00  4.986594190562E+00  2.605511400000E+00
     4     4     6    2.467724141366E+00 -1.424741197304E+00  2.605511400000E+00
     5     5     6    3.701586212049E+00  7.123705986520E-01  2.605511400000E+00
     6     6     6    4.935448282733E+00  2.849482394607E+00  2.605511400000E+00
     7     7     6    3.701586212049E+00 -3.561852993259E+00  2.605511400000E+00
     8     8     6    4.935448282733E+00 -1.424741197304E+00  2.605511400000E+00
     9     9     6    6.169310353416E+00  7.123705986520E-01  2.605511400000E+00
    10    10     6    1.233862070683E+00 -7.123705986520E-01  2.605511400000E+00
    11    11     6    2.467724141366E+00  1.424741197304E+00  2.605511400000E+00
    12    12     6    3.701586212049E+00  3.561852993259E+00  2.605511400000E+00
    13    13     6    3.701586212049E+00 -7.123705986520E-01  2.605511400000E+00
    14    14     6    4.935448282733E+00  1.424741197304E+00  2.605511400000E+00
    15    15     6    3.701586212049E+00 -4.986594190562E+00  2.605511400000E+00
    16    16     6    4.935448282733E+00 -2.849482394607E+00  2.605511400000E+00
    17    17     6    6.169310353416E+00 -7.123705986520E-01  2.605511400000E+00

 SPACE  GROUP  N.                     :    1
 NUMBER OF SYMMETRY OPERATORS         :    1
 *******************************************************************************
 LATTICE PARAMETERS (ANGSTROMS AND DEGREES) - BOHR = 0.5291772083 ANGSTROM
 PRIMITIVE CELL - CENTRING CODE 1/0 VOLUME=   412.228566 - DENSITY  0.822 g/cm^3
         A              B              C           ALPHA      BETA       GAMMA 
     7.40317242     7.40317242     8.68503800    90.000000  90.000000 120.000000
 *******************************************************************************
 ATOMS IN THE ASYMMETRIC UNIT   17 - ATOMS IN THE UNIT CELL:   17
     ATOM                 X/A                 Y/B                 Z/C    
 *******************************************************************************
      1 T   6 C     1.111111111111E-01  2.222222222222E-01  3.000000000000E-01
      2 T   6 C     1.111111111111E-01 -4.444444444445E-01  3.000000000000E-01
      3 T   6 C     1.111111111111E-01 -1.111111111111E-01  3.000000000000E-01
      4 T   6 C     4.444444444445E-01  2.222222222222E-01  3.000000000000E-01
      5 T   6 C     4.444444444444E-01 -4.444444444444E-01  3.000000000000E-01
      6 T   6 C     4.444444444446E-01 -1.111111111110E-01  3.000000000000E-01
      7 T   6 C    -2.222222222222E-01  2.222222222222E-01  3.000000000000E-01
      8 T   6 C    -2.222222222221E-01 -4.444444444443E-01  3.000000000000E-01
      9 T   6 C    -2.222222222221E-01 -1.111111111110E-01  3.000000000000E-01
     10 T   6 C     2.222222222222E-01  1.111111111111E-01  3.000000000000E-01
     11 T   6 C     2.222222222222E-01  4.444444444445E-01  3.000000000000E-01
     12 T   6 C     2.222222222222E-01 -2.222222222222E-01  3.000000000000E-01
     13 T   6 C    -4.444444444444E-01  4.444444444444E-01  3.000000000000E-01
     14 T   6 C    -4.444444444443E-01 -2.222222222221E-01  3.000000000000E-01
     15 T   6 C    -1.111111111111E-01  1.111111111111E-01  3.000000000000E-01
     16 T   6 C    -1.111111111110E-01  4.444444444446E-01  3.000000000000E-01
     17 T   6 C    -1.111111111110E-01 -2.222222222221E-01  3.000000000000E-01

 T = ATOM BELONGING TO THE ASYMMETRIC UNIT
 *******************************************************************************
 * GEOMETRY EDITING - INPUT COORDINATES ARE GIVEN IN ANGSTROM         
 *******************************************************************************

 USE OF SYMMETRY WILL BE SUBSEQUENTLY SUSPENDED

 GCALCO - MAX INDICES DIRECT LATTICE VECTOR    16    16    12
 NO.OF VECTORS CREATED 6999 STARS  379 RMAX   166.99060 BOHR

 GEOMETRY FOR WAVE FUNCTION - DIMENSIONALITY OF THE SYSTEM    3
 (NON PERIODIC DIRECTION: LATTICE PARAMETER FORMALLY SET TO 500)
 *******************************************************************************
 LATTICE PARAMETERS (ANGSTROMS AND DEGREES) - BOHR = 0.5291772083 ANGSTROM
 PRIMITIVE CELL - CENTRING CODE 1/0 VOLUME=   412.228566 - DENSITY  0.822 g/cm^3
         A              B              C           ALPHA      BETA       GAMMA 
     7.40317242     7.40317242     8.68503800    90.000000  90.000000 120.000000
 *******************************************************************************
 ATOMS IN THE ASYMMETRIC UNIT   17 - ATOMS IN THE UNIT CELL:   17
     ATOM                 X/A                 Y/B                 Z/C    
 *******************************************************************************
      1 T   6 C     1.111111111111E-01  2.222222222222E-01  3.000000000000E-01
      2 T   6 C     1.111111111111E-01 -4.444444444445E-01  3.000000000000E-01
      3 T   6 C     1.111111111111E-01 -1.111111111111E-01  3.000000000000E-01
      4 T   6 C     4.444444444445E-01  2.222222222222E-01  3.000000000000E-01
      5 T   6 C     4.444444444444E-01 -4.444444444444E-01  3.000000000000E-01
      6 T   6 C     4.444444444446E-01 -1.111111111110E-01  3.000000000000E-01
      7 T   6 C    -2.222222222222E-01  2.222222222222E-01  3.000000000000E-01
      8 T   6 C    -2.222222222221E-01 -4.444444444443E-01  3.000000000000E-01
      9 T   6 C    -2.222222222221E-01 -1.111111111110E-01  3.000000000000E-01
     10 T   6 C     2.222222222222E-01  1.111111111111E-01  3.000000000000E-01
     11 T   6 C     2.222222222222E-01  4.444444444445E-01  3.000000000000E-01
     12 T   6 C     2.222222222222E-01 -2.222222222222E-01  3.000000000000E-01
     13 T   6 C    -4.444444444444E-01  4.444444444444E-01  3.000000000000E-01
     14 T   6 C    -4.444444444443E-01 -2.222222222221E-01  3.000000000000E-01
     15 T   6 C    -1.111111111111E-01  1.111111111111E-01  3.000000000000E-01
     16 T   6 C    -1.111111111110E-01  4.444444444446E-01  3.000000000000E-01
     17 T   6 C    -1.111111111110E-01 -2.222222222221E-01  3.000000000000E-01

 T = ATOM BELONGING TO THE ASYMMETRIC UNIT

 ****    1 SYMMOPS - TRANSLATORS IN FRACTIONAL UNITS
 **** MATRICES AND TRANSLATORS IN THE CRYSTALLOGRAPHIC REFERENCE FRAME
   V INV                    ROTATION MATRICES                   TRANSLATORS
   1   1  1.00  0.00  0.00  0.00  1.00  0.00  0.00  0.00  1.00  0.00  0.00  0.00

 DIRECT LATTICE VECTORS CARTESIAN COMPONENTS (ANGSTROM)
          X                    Y                    Z
   0.370158621205E+01  -0.641133538787E+01   0.000000000000E+00
   0.370158621205E+01   0.641133538787E+01   0.000000000000E+00
   0.000000000000E+00   0.000000000000E+00   0.868503800000E+01


 CARTESIAN COORDINATES - PRIMITIVE CELL
 *******************************************************************************
 *      ATOM          X(ANGSTROM)         Y(ANGSTROM)         Z(ANGSTROM)
 *******************************************************************************
    1     6 C     1.233862070683E+00  7.123705986520E-01  2.605511400000E+00
    2     6 C     2.467724141366E+00  2.849482394607E+00  2.605511400000E+00
    3     6 C     3.701586212049E+00  4.986594190562E+00  2.605511400000E+00
    4     6 C     2.467724141366E+00 -1.424741197304E+00  2.605511400000E+00
    5     6 C     3.701586212049E+00  7.123705986520E-01  2.605511400000E+00
    6     6 C     4.935448282733E+00  2.849482394607E+00  2.605511400000E+00
    7     6 C     3.701586212049E+00 -3.561852993259E+00  2.605511400000E+00
    8     6 C     4.935448282733E+00 -1.424741197304E+00  2.605511400000E+00
    9     6 C     6.169310353416E+00  7.123705986520E-01  2.605511400000E+00
   10     6 C     1.233862070683E+00 -7.123705986520E-01  2.605511400000E+00
   11     6 C     2.467724141366E+00  1.424741197304E+00  2.605511400000E+00
   12     6 C     3.701586212049E+00  3.561852993259E+00  2.605511400000E+00
   13     6 C     3.701586212049E+00 -7.123705986520E-01  2.605511400000E+00
   14     6 C     4.935448282733E+00  1.424741197304E+00  2.605511400000E+00
   15     6 C     3.701586212049E+00 -4.986594190562E+00  2.605511400000E+00
   16     6 C     4.935448282733E+00 -2.849482394607E+00  2.605511400000E+00
   17     6 C     6.169310353416E+00 -7.123705986520E-01  2.605511400000E+00

 *******************************************************************************
 LOCAL ATOMIC FUNCTIONS BASIS SET
 *******************************************************************************
   ATOM   X(AU)   Y(AU)   Z(AU)  N. TYPE  EXPONENT  S COEF   P COEF   D/F/G COEF
 *******************************************************************************
   1 C    2.332   1.346   4.924
                                  1 S  
                                         1.358E+04 2.225E-04 0.000E+00 0.000E+00
                                         2.035E+03 1.723E-03 0.000E+00 0.000E+00
                                         4.632E+02 8.926E-03 0.000E+00 0.000E+00
                                         1.312E+02 3.573E-02 0.000E+00 0.000E+00
                                         4.285E+01 1.108E-01 0.000E+00 0.000E+00
                                         1.558E+01 2.430E-01 0.000E+00 0.000E+00
                                  2 S  
                                         6.207E+00 4.144E-01 0.000E+00 0.000E+00
                                         2.576E+00 2.374E-01 0.000E+00 0.000E+00
                                  3 S  
                                         4.941E-01 1.000E+00 0.000E+00 0.000E+00
                                  4 S  
                                         1.644E-01 1.000E+00 0.000E+00 0.000E+00
                           5-     7 P  
                                         3.470E+01 0.000E+00 5.333E-03 0.000E+00
                                         7.958E+00 0.000E+00 3.586E-02 0.000E+00
                                         2.378E+00 0.000E+00 1.422E-01 0.000E+00
                                         8.143E-01 0.000E+00 3.427E-01 0.000E+00
                           8-    10 P  
                                         5.662E-01 0.000E+00 1.000E+00 0.000E+00
                          11-    13 P  
                                         1.974E-01 0.000E+00 1.000E+00 0.000E+00
                          14-    18 D  
                                         5.792E-01 0.000E+00 0.000E+00 1.000E+00
   2 C    4.663   5.385   4.924
   3 C    6.995   9.423   4.924
   4 C    4.663  -2.692   4.924
   5 C    6.995   1.346   4.924
   6 C    9.327   5.385   4.924
   7 C    6.995  -6.731   4.924
   8 C    9.327  -2.692   4.924
   9 C   11.658   1.346   4.924
  10 C    2.332  -1.346   4.924
  11 C    4.663   2.692   4.924
  12 C    6.995   6.731   4.924
  13 C    6.995  -1.346   4.924
  14 C    9.327   2.692   4.924
  15 C    6.995  -9.423   4.924
  16 C    9.327  -5.385   4.924
  17 C   11.658  -1.346   4.924
 INFORMATION **** SET_MPP **** PCRYSTAL CALCULATION
 INFORMATION **** READM2 **** NEW DEFAULT: FOCK/KS MATRIX MIXING SET TO 30 %
 INFORMATION **** READM2 **** NEW DEFAULT: FULL DIRECT SCF MODE
 INFORMATION **** READM2 **** NEW DEFAULT: COULOMB BIPOLAR BUFFER SET TO 32 Mb
 INFORMATION **** READM2 **** NEW DEFAULT: EXCHANGE BIPOLAR BUFFER SET TO 32 Mb

 *******************************************************************************
 NEW DEFAULT: DFT INTEGRATION GRID INCREASED TO XLGRID
 NEW DEFAULT: DIIS ACCELERATOR ACTIVE
 USE KEYWORD NODIIS TO TURN IT OFF
 *******************************************************************************

 INFORMATION **** TOLINTEG **** COULOMB AND EXCHANGE SERIES TOLERANCES MODIFIED
 INFORMATION **** READM2 **** FULL DIRECT SCF (MONO AND BIEL INT) SELECTED
 INFORMATION **** MAXCYCLE **** MAX NUMBER OF SCF CYCLES SET TO         200
 INFORMATION **** TOLDEE **** SCF TOL ON TOTAL ENERGY SET TO           9
 *******************************************************************************
 N. OF ATOMS PER CELL        17  COULOMB OVERLAP TOL         (T1) 10**   -8
 NUMBER OF SHELLS           136  COULOMB PENETRATION TOL     (T2) 10**   -8
 NUMBER OF AO               306  EXCHANGE OVERLAP TOL        (T3) 10**   20
 N. OF ELECTRONS PER CELL   102  EXCHANGE PSEUDO OVP (F(G))  (T4) 10**   20
 CORE ELECTRONS PER CELL     34  EXCHANGE PSEUDO OVP (P(G))  (T5) 10**   20
 N. OF SYMMETRY OPERATORS     1  POLE ORDER IN MONO ZONE                  4
 *******************************************************************************
 TYPE OF CALCULATION :  RESTRICTED CLOSED SHELL
 KOHN-SHAM HAMILTONIAN

 (EXCHANGE)[CORRELATION] FUNCTIONAL:(PERDEW-BURKE-ERNZERHOF)[PERDEW-BURKE-ERNZERHOF]


 CAPPA:IS1  8;IS2  8;IS3  8; K PTS MONK NET 260; SYMMOPS:K SPACE   2;G SPACE   1

 *******************************************************************************
 MAX NUMBER OF SCF CYCLES     200  CONVERGENCE ON DELTAP        10**-19
 WEIGHT OF F(I) IN F(I+1)      30% CONVERGENCE ON ENERGY        10**- 9
 SHRINK. FACT.(MONKH.)    8  8  8  NUMBER OF K POINTS IN THE IBZ    260
 SHRINKING FACTOR(GILAT NET)   16  NUMBER OF K POINTS(GILAT NET)   2052
 *******************************************************************************
 *** K POINTS COORDINATES (OBLIQUE COORDINATES IN UNITS OF IS =  8)
   1-R(  0  0  0)   2-C(  1  0  0)   3-C(  2  0  0)   4-C(  3  0  0)
   5-R(  4  0  0)   6-C(  0  1  0)   7-C(  1  1  0)   8-C(  2  1  0)
   9-C(  3  1  0)  10-C(  4  1  0)  11-C(  5  1  0)  12-C(  6  1  0)
  13-C(  7  1  0)  14-C(  0  2  0)  15-C(  1  2  0)  16-C(  2  2  0)
  17-C(  3  2  0)  18-C(  4  2  0)  19-C(  5  2  0)  20-C(  6  2  0)
  21-C(  7  2  0)  22-C(  0  3  0)  23-C(  1  3  0)  24-C(  2  3  0)
  25-C(  3  3  0)  26-C(  4  3  0)  27-C(  5  3  0)  28-C(  6  3  0)
  29-C(  7  3  0)  30-R(  0  4  0)  31-C(  1  4  0)  32-C(  2  4  0)
  33-C(  3  4  0)  34-R(  4  4  0)  35-C(  0  0  1)  36-C(  1  0  1)
  37-C(  2  0  1)  38-C(  3  0  1)  39-C(  4  0  1)  40-C(  5  0  1)
  41-C(  6  0  1)  42-C(  7  0  1)  43-C(  0  1  1)  44-C(  1  1  1)
  45-C(  2  1  1)  46-C(  3  1  1)  47-C(  4  1  1)  48-C(  5  1  1)
  49-C(  6  1  1)  50-C(  7  1  1)  51-C(  0  2  1)  52-C(  1  2  1)
  53-C(  2  2  1)  54-C(  3  2  1)  55-C(  4  2  1)  56-C(  5  2  1)
  57-C(  6  2  1)  58-C(  7  2  1)  59-C(  0  3  1)  60-C(  1  3  1)
  61-C(  2  3  1)  62-C(  3  3  1)  63-C(  4  3  1)  64-C(  5  3  1)
  65-C(  6  3  1)  66-C(  7  3  1)  67-C(  0  4  1)  68-C(  1  4  1)
  69-C(  2  4  1)  70-C(  3  4  1)  71-C(  4  4  1)  72-C(  5  4  1)
  73-C(  6  4  1)  74-C(  7  4  1)  75-C(  0  5  1)  76-C(  1  5  1)
  77-C(  2  5  1)  78-C(  3  5  1)  79-C(  4  5  1)  80-C(  5  5  1)
  81-C(  6  5  1)  82-C(  7  5  1)  83-C(  0  6  1)  84-C(  1  6  1)
  85-C(  2  6  1)  86-C(  3  6  1)  87-C(  4  6  1)  88-C(  5  6  1)
  89-C(  6  6  1)  90-C(  7  6  1)  91-C(  0  7  1)  92-C(  1  7  1)
  93-C(  2  7  1)  94-C(  3  7  1)  95-C(  4  7  1)  96-C(  5  7  1)
  97-C(  6  7  1)  98-C(  7  7  1)  99-C(  0  0  2) 100-C(  1  0  2)
 101-C(  2  0  2) 102-C(  3  0  2) 103-C(  4  0  2) 104-C(  5  0  2)
 105-C(  6  0  2) 106-C(  7  0  2) 107-C(  0  1  2) 108-C(  1  1  2)
 109-C(  2  1  2) 110-C(  3  1  2) 111-C(  4  1  2) 112-C(  5  1  2)
 113-C(  6  1  2) 114-C(  7  1  2) 115-C(  0  2  2) 116-C(  1  2  2)
 117-C(  2  2  2) 118-C(  3  2  2) 119-C(  4  2  2) 120-C(  5  2  2)
 121-C(  6  2  2) 122-C(  7  2  2) 123-C(  0  3  2) 124-C(  1  3  2)
 125-C(  2  3  2) 126-C(  3  3  2) 127-C(  4  3  2) 128-C(  5  3  2)
 129-C(  6  3  2) 130-C(  7  3  2) 131-C(  0  4  2) 132-C(  1  4  2)
 133-C(  2  4  2) 134-C(  3  4  2) 135-C(  4  4  2) 136-C(  5  4  2)
 137-C(  6  4  2) 138-C(  7  4  2) 139-C(  0  5  2) 140-C(  1  5  2)
 141-C(  2  5  2) 142-C(  3  5  2) 143-C(  4  5  2) 144-C(  5  5  2)
 145-C(  6  5  2) 146-C(  7  5  2) 147-C(  0  6  2) 148-C(  1  6  2)
 149-C(  2  6  2) 150-C(  3  6  2) 151-C(  4  6  2) 152-C(  5  6  2)
 153-C(  6  6  2) 154-C(  7  6  2) 155-C(  0  7  2) 156-C(  1  7  2)
 157-C(  2  7  2) 158-C(  3  7  2) 159-C(  4  7  2) 160-C(  5  7  2)
 161-C(  6  7  2) 162-C(  7  7  2) 163-C(  0  0  3) 164-C(  1  0  3)
 165-C(  2  0  3) 166-C(  3  0  3) 167-C(  4  0  3) 168-C(  5  0  3)
 169-C(  6  0  3) 170-C(  7  0  3) 171-C(  0  1  3) 172-C(  1  1  3)
 173-C(  2  1  3) 174-C(  3  1  3) 175-C(  4  1  3) 176-C(  5  1  3)
 177-C(  6  1  3) 178-C(  7  1  3) 179-C(  0  2  3) 180-C(  1  2  3)
 181-C(  2  2  3) 182-C(  3  2  3) 183-C(  4  2  3) 184-C(  5  2  3)
 185-C(  6  2  3) 186-C(  7  2  3) 187-C(  0  3  3) 188-C(  1  3  3)
 189-C(  2  3  3) 190-C(  3  3  3) 191-C(  4  3  3) 192-C(  5  3  3)
 193-C(  6  3  3) 194-C(  7  3  3) 195-C(  0  4  3) 196-C(  1  4  3)
 197-C(  2  4  3) 198-C(  3  4  3) 199-C(  4  4  3) 200-C(  5  4  3)
 201-C(  6  4  3) 202-C(  7  4  3) 203-C(  0  5  3) 204-C(  1  5  3)
 205-C(  2  5  3) 206-C(  3  5  3) 207-C(  4  5  3) 208-C(  5  5  3)
 209-C(  6  5  3) 210-C(  7  5  3) 211-C(  0  6  3) 212-C(  1  6  3)
 213-C(  2  6  3) 214-C(  3  6  3) 215-C(  4  6  3) 216-C(  5  6  3)
 217-C(  6  6  3) 218-C(  7  6  3) 219-C(  0  7  3) 220-C(  1  7  3)
 221-C(  2  7  3) 222-C(  3  7  3) 223-C(  4  7  3) 224-C(  5  7  3)
 225-C(  6  7  3) 226-C(  7  7  3) 227-R(  0  0  4) 228-C(  1  0  4)
 229-C(  2  0  4) 230-C(  3  0  4) 231-R(  4  0  4) 232-C(  0  1  4)
 233-C(  1  1  4) 234-C(  2  1  4) 235-C(  3  1  4) 236-C(  4  1  4)
 237-C(  5  1  4) 238-C(  6  1  4) 239-C(  7  1  4) 240-C(  0  2  4)
 241-C(  1  2  4) 242-C(  2  2  4) 243-C(  3  2  4) 244-C(  4  2  4)
 245-C(  5  2  4) 246-C(  6  2  4) 247-C(  7  2  4) 248-C(  0  3  4)
 249-C(  1  3  4) 250-C(  2  3  4) 251-C(  3  3  4) 252-C(  4  3  4)
 253-C(  5  3  4) 254-C(  6  3  4) 255-C(  7  3  4) 256-R(  0  4  4)
 257-C(  1  4  4) 258-C(  2  4  4) 259-C(  3  4  4) 260-R(  4  4  4)

 DIRECT LATTICE VECTORS COMPON. (A.U.)     RECIP. LATTICE VECTORS COMPON. (A.U.) 
        X            Y            Z              X            Y            Z
    6.9949842  -12.1156680    0.0000000      0.4491208   -0.2593000    0.0000000
    6.9949842   12.1156680    0.0000000      0.4491208    0.2593000   -0.0000000
    0.0000000    0.0000000   16.4123433     -0.0000000    0.0000000    0.3828329

 DISK SPACE FOR EIGENVECTORS (FTN 10)    47941632 REALS

 SYMMETRY ADAPTION OF THE BLOCH FUNCTIONS DISABLED
 TTTTTTTTTTTTTTTTTTTTTTTTTTTTTT gordsh1     TELAPSE        2.71 TCPU        1.01

 MATRIX SIZE: P(G)  142398, F(G)   71403, P(G) IRR   71726, F(G) IRR   71726
 MAX G-VECTOR INDEX FOR 1- AND 2-ELECTRON INTEGRALS  27

 TTTTTTTTTTTTTTTTTTTTTTTTTTTTTT INPUT       TELAPSE        2.73 TCPU        1.02

 NEIGHBORS OF THE NON-EQUIVALENT ATOMS

 N = NUMBER OF NEIGHBORS AT DISTANCE R
    ATOM  N     R/ANG      R/AU   NEIGHBORS (ATOM LABELS AND CELL INDICES)
   1 C    3     1.4247     2.6924   10 C    0 0 0   11 C    0 0 0   15 C   -1 0 0
   1 C    6     2.4677     4.6633    2 C    0 0 0    3 C    0-1 0    4 C    0 0 0
                                     5 C    0 0 0    7 C   -1 0 0    9 C   -1-1 0
   1 C    3     2.8495     5.3847   13 C    0 0 0   16 C   -1 0 0   17 C   -1-1 0
   1 C    4     3.7695     7.1233   12 C    0 0 0   12 C    0-1 0   14 C    0 0 0
                                    14 C   -1-1 0
   1 C    6     4.2742     8.0771    6 C    0 0 0    6 C   -1-1 0    6 C    0-1 0
                                     8 C    0 0 0    8 C   -1-1 0    8 C   -1 0 0
   1 C    6     4.9354     9.3266    2 C    0-1 0    3 C    0 0 0    4 C   -1 0 0
                                     5 C   -1-1 0    7 C    0 0 0    9 C    0 0 0

   2 C    3     1.4247     2.6924   11 C    0 0 0   12 C    0 0 0   16 C   -1 0 0
   2 C    6     2.4677     4.6633    1 C    0 0 0    3 C    0 0 0    5 C    0 0 0
                                     6 C    0 0 0    7 C   -1 0 0    8 C   -1 0 0
   2 C    3     2.8495     5.3847   14 C    0 0 0   15 C   -1 0 0   17 C   -1 0 0
   2 C    4     3.7695     7.1233   10 C    0 0 0   10 C    0 1 0   13 C    0 0 0
                                    13 C   -1 0 0
   2 C    6     4.2742     8.0771    4 C    0 0 0    4 C   -1 0 0    4 C    0 1 0
                                     9 C    0 0 0    9 C   -1-1 0    9 C   -1 0 0
   2 C    6     4.9354     9.3266    1 C    0 1 0    3 C    0-1 0    5 C   -1 0 0
                                     6 C   -1-1 0    7 C    0 1 0    8 C    0 0 0

   3 C    3     1.4247     2.6924   10 C    0 1 0   12 C    0 0 0   17 C   -1 0 0
   3 C    6     2.4677     4.6633    1 C    0 1 0    2 C    0 0 0    4 C    0 1 0
                                     6 C    0 0 0    8 C   -1 0 0    9 C   -1 0 0
   3 C    2     2.8495     5.3847   15 C   -1 1 0   16 C   -1 0 0
   3 C    6     3.7695     7.1233   11 C    0 0 0   11 C    0 1 0   13 C   -1 0 0
                                    13 C    0 1 0   14 C    0 0 0   14 C   -1 0 0
   3 C    6     4.2742     8.0771    5 C    0 0 0    5 C   -1 0 0    5 C    0 1 0
                                     7 C   -1 0 0    7 C    0 1 0    7 C   -1 1 0
   3 C    6     4.9354     9.3266    1 C    0 0 0    2 C    0 1 0    4 C   -1 0 0
                                     6 C   -1 0 0    8 C    0 1 0    9 C    0 0 0

   4 C    2     1.4247     2.6924   10 C    0 0 0   13 C    0 0 0
   4 C    6     2.4677     4.6633    1 C    0 0 0    3 C    0-1 0    5 C    0 0 0
                                     6 C    0-1 0    7 C    0 0 0    8 C    0 0 0
   4 C    3     2.8495     5.3847   11 C    0 0 0   12 C    0-1 0   16 C    0 0 0
   4 C    6     3.7695     7.1233   14 C    0 0 0   14 C    0-1 0   15 C    0 0 0
                                    15 C   -1 0 0   17 C    0 0 0   17 C   -1-1 0
   4 C    6     4.2742     8.0771    2 C    0 0 0    2 C    1 0 0    2 C    0-1 0
                                     9 C    0 0 0    9 C   -1-1 0    9 C    0-1 0
   4 C    6     4.9354     9.3266    1 C    1 0 0    3 C    1 0 0    5 C    0-1 0
                                     6 C    0 0 0    7 C   -1 0 0    8 C   -1-1 0

   5 C    3     1.4247     2.6924   11 C    0 0 0   13 C    0 0 0   14 C    0 0 0
   5 C    6     2.4677     4.6633    1 C    0 0 0    2 C    0 0 0    4 C    0 0 0
                                     6 C    0 0 0    8 C    0 0 0    9 C    0 0 0
   5 C    3     2.8495     5.3847   10 C    0 0 0   12 C    0 0 0   17 C    0 0 0
   5 C    4     3.7695     7.1233   15 C   -1 0 0   15 C    0 1 0   16 C    0 0 0
                                    16 C   -1 0 0
   5 C    6     4.2742     8.0771    3 C    0 0 0    3 C    1 0 0    3 C    0-1 0
                                     7 C    0 0 0    7 C   -1 0 0    7 C    0 1 0
   5 C    6     4.9354     9.3266    1 C    1 1 0    2 C    1 0 0    4 C    0 1 0
                                     6 C    0-1 0    8 C   -1 0 0    9 C   -1-1 0

   6 C    2     1.4247     2.6924   12 C    0 0 0   14 C    0 0 0
   6 C    6     2.4677     4.6633    2 C    0 0 0    3 C    0 0 0    4 C    0 1 0
                                     5 C    0 0 0    7 C    0 1 0    9 C    0 0 0
   6 C    3     2.8495     5.3847   10 C    0 1 0   11 C    0 0 0   15 C    0 1 0
   6 C    6     3.7695     7.1233   13 C    0 0 0   13 C    0 1 0   16 C   -1 0 0
                                    16 C    0 1 0   17 C    0 0 0   17 C   -1 0 0
   6 C    6     4.2742     8.0771    1 C    0 0 0    1 C    1 1 0    1 C    0 1 0
                                     8 C    0 0 0    8 C   -1 0 0    8 C    0 1 0
   6 C    6     4.9354     9.3266    2 C    1 1 0    3 C    1 0 0    4 C    0 0 0
                                     5 C    0 1 0    7 C   -1 0 0    9 C   -1 0 0

   7 C    2     1.4247     2.6924   15 C    0 0 0   16 C    0 0 0
   7 C    6     2.4677     4.6633    1 C    1 0 0    2 C    1 0 0    4 C    0 0 0
                                     6 C    0-1 0    8 C    0 0 0    9 C    0-1 0
   7 C    3     2.8495     5.3847   11 C    1 0 0   13 C    0 0 0   14 C    0-1 0
   7 C    6     3.7695     7.1233   10 C    0 0 0   10 C    1 0 0   12 C    1 0 0
                                    12 C    0-1 0   17 C    0 0 0   17 C    0-1 0
   7 C    6     4.2742     8.0771    3 C    1 0 0    3 C    0-1 0    3 C    1-1 0
                                     5 C    0 0 0    5 C    1 0 0    5 C    0-1 0
   7 C    6     4.9354     9.3266    1 C    0 0 0    2 C    0-1 0    4 C    1 0 0
                                     6 C    1 0 0    8 C    0-1 0    9 C    0 0 0

   8 C    3     1.4247     2.6924   13 C    0 0 0   16 C    0 0 0   17 C    0 0 0
   8 C    6     2.4677     4.6633    2 C    1 0 0    3 C    1 0 0    4 C    0 0 0
                                     5 C    0 0 0    7 C    0 0 0    9 C    0 0 0
   8 C    2     2.8495     5.3847   12 C    1 0 0   14 C    0 0 0
   8 C    6     3.7695     7.1233   10 C    0 0 0   10 C    1 1 0   11 C    0 0 0
                                    11 C    1 0 0   15 C    0 0 0   15 C    0 1 0
   8 C    6     4.2742     8.0771    1 C    0 0 0    1 C    1 1 0    1 C    1 0 0
                                     6 C    0 0 0    6 C    1 0 0    6 C    0-1 0
   8 C    6     4.9354     9.3266    2 C    0 0 0    3 C    0-1 0    4 C    1 1 0
                                     5 C    1 0 0    7 C    0 1 0    9 C    0-1 0

   9 C    3     1.4247     2.6924   14 C    0 0 0   15 C    0 1 0   17 C    0 0 0
   9 C    6     2.4677     4.6633    1 C    1 1 0    3 C    1 0 0    5 C    0 0 0
                                     6 C    0 0 0    7 C    0 1 0    8 C    0 0 0
   9 C    2     2.8495     5.3847   10 C    1 1 0   13 C    0 0 0
   9 C    6     3.7695     7.1233   11 C    0 0 0   11 C    1 1 0   12 C    0 0 0
                                    12 C    1 0 0   16 C    0 0 0   16 C    0 1 0
   9 C    6     4.2742     8.0771    2 C    0 0 0    2 C    1 1 0    2 C    1 0 0
                                     4 C    0 0 0    4 C    1 1 0    4 C    0 1 0
   9 C    6     4.9354     9.3266    1 C    0 0 0    3 C    0 0 0    5 C    1 1 0
                                     6 C    1 0 0    7 C    0 0 0    8 C    0 1 0

  10 C    3     1.4247     2.6924    1 C    0 0 0    3 C    0-1 0    4 C    0 0 0
  10 C    5     2.4677     4.6633   11 C    0 0 0   12 C    0-1 0   13 C    0 0 0
                                    15 C   -1 0 0   17 C   -1-1 0
  10 C    3     2.8495     5.3847    5 C    0 0 0    6 C    0-1 0    9 C   -1-1 0
  10 C    6     3.7695     7.1233    2 C    0 0 0    2 C    0-1 0    7 C    0 0 0
                                     7 C   -1 0 0    8 C    0 0 0    8 C   -1-1 0
  10 C    6     4.2742     8.0771   14 C    0 0 0   14 C   -1-1 0   14 C    0-1 0
                                    16 C    0 0 0   16 C   -1-1 0   16 C   -1 0 0
  10 C    5     4.9354     9.3266   11 C    0-1 0   12 C    0 0 0   13 C   -1-1 0
                                    15 C    0 0 0   17 C    0 0 0

  11 C    3     1.4247     2.6924    1 C    0 0 0    2 C    0 0 0    5 C    0 0 0
  11 C    6     2.4677     4.6633   10 C    0 0 0   12 C    0 0 0   13 C    0 0 0
                                    14 C    0 0 0   15 C   -1 0 0   16 C   -1 0 0
  11 C    3     2.8495     5.3847    4 C    0 0 0    6 C    0 0 0    7 C   -1 0 0
  11 C    6     3.7695     7.1233    3 C    0 0 0    3 C    0-1 0    8 C    0 0 0
                                     8 C   -1 0 0    9 C    0 0 0    9 C   -1-1 0
  11 C    3     4.2742     8.0771   17 C    0 0 0   17 C   -1-1 0   17 C   -1 0 0
  11 C    6     4.9354     9.3266   10 C    0 1 0   12 C    0-1 0   13 C   -1 0 0
                                    14 C   -1-1 0   15 C    0 1 0   16 C    0 0 0

  12 C    3     1.4247     2.6924    2 C    0 0 0    3 C    0 0 0    6 C    0 0 0
  12 C    5     2.4677     4.6633   10 C    0 1 0   11 C    0 0 0   14 C    0 0 0
                                    16 C   -1 0 0   17 C   -1 0 0
  12 C    3     2.8495     5.3847    4 C    0 1 0    5 C    0 0 0    8 C   -1 0 0
  12 C    6     3.7695     7.1233    1 C    0 0 0    1 C    0 1 0    7 C   -1 0 0
                                     7 C    0 1 0    9 C    0 0 0    9 C   -1 0 0
  12 C    6     4.2742     8.0771   13 C    0 0 0   13 C   -1 0 0   13 C    0 1 0
                                    15 C   -1 0 0   15 C    0 1 0   15 C   -1 1 0
  12 C    5     4.9354     9.3266   10 C    0 0 0   11 C    0 1 0   14 C   -1 0 0
                                    16 C    0 1 0   17 C    0 0 0

  13 C    3     1.4247     2.6924    4 C    0 0 0    5 C    0 0 0    8 C    0 0 0
  13 C    5     2.4677     4.6633   10 C    0 0 0   11 C    0 0 0   14 C    0 0 0
                                    16 C    0 0 0   17 C    0 0 0
  13 C    3     2.8495     5.3847    1 C    0 0 0    7 C    0 0 0    9 C    0 0 0
  13 C    6     3.7695     7.1233    2 C    0 0 0    2 C    1 0 0    3 C    1 0 0
                                     3 C    0-1 0    6 C    0 0 0    6 C    0-1 0
  13 C    6     4.2742     8.0771   12 C    0 0 0   12 C    1 0 0   12 C    0-1 0
                                    15 C    0 0 0   15 C   -1 0 0   15 C    0 1 0
  13 C    5     4.9354     9.3266   10 C    1 1 0   11 C    1 0 0   14 C    0-1 0
                                    16 C   -1 0 0   17 C   -1-1 0

  14 C    3     1.4247     2.6924    5 C    0 0 0    6 C    0 0 0    9 C    0 0 0
  14 C    5     2.4677     4.6633   11 C    0 0 0   12 C    0 0 0   13 C    0 0 0
                                    15 C    0 1 0   17 C    0 0 0
  14 C    3     2.8495     5.3847    2 C    0 0 0    7 C    0 1 0    8 C    0 0 0
  14 C    6     3.7695     7.1233    1 C    0 0 0    1 C    1 1 0    3 C    0 0 0
                                     3 C    1 0 0    4 C    0 0 0    4 C    0 1 0
  14 C    6     4.2742     8.0771   10 C    0 0 0   10 C    1 1 0   10 C    0 1 0
                                    16 C    0 0 0   16 C   -1 0 0   16 C    0 1 0
  14 C    5     4.9354     9.3266   11 C    1 1 0   12 C    1 0 0   13 C    0 1 0
                                    15 C   -1 0 0   17 C   -1 0 0

  15 C    3     1.4247     2.6924    1 C    1 0 0    7 C    0 0 0    9 C    0-1 0
  15 C    5     2.4677     4.6633   10 C    1 0 0   11 C    1 0 0   14 C    0-1 0
                                    16 C    0 0 0   17 C    0-1 0
  15 C    3     2.8495     5.3847    2 C    1 0 0    3 C    1-1 0    6 C    0-1 0
  15 C    6     3.7695     7.1233    4 C    0 0 0    4 C    1 0 0    5 C    1 0 0
                                     5 C    0-1 0    8 C    0 0 0    8 C    0-1 0
  15 C    6     4.2742     8.0771   12 C    1 0 0   12 C    0-1 0   12 C    1-1 0
                                    13 C    0 0 0   13 C    1 0 0   13 C    0-1 0
  15 C    5     4.9354     9.3266   10 C    0 0 0   11 C    0-1 0   14 C    1 0 0
                                    16 C    0-1 0   17 C    0 0 0

  16 C    3     1.4247     2.6924    2 C    1 0 0    7 C    0 0 0    8 C    0 0 0
  16 C    5     2.4677     4.6633   11 C    1 0 0   12 C    1 0 0   13 C    0 0 0
                                    15 C    0 0 0   17 C    0 0 0
  16 C    3     2.8495     5.3847    1 C    1 0 0    3 C    1 0 0    4 C    0 0 0
  16 C    6     3.7695     7.1233    5 C    0 0 0    5 C    1 0 0    6 C    1 0 0
                                     6 C    0-1 0    9 C    0 0 0    9 C    0-1 0
  16 C    6     4.2742     8.0771   10 C    0 0 0   10 C    1 1 0   10 C    1 0 0
                                    14 C    0 0 0   14 C    1 0 0   14 C    0-1 0
  16 C    5     4.9354     9.3266   11 C    0 0 0   12 C    0-1 0   13 C    1 0 0
                                    15 C    0 1 0   17 C    0-1 0

  17 C    3     1.4247     2.6924    3 C    1 0 0    8 C    0 0 0    9 C    0 0 0
  17 C    6     2.4677     4.6633   10 C    1 1 0   12 C    1 0 0   13 C    0 0 0
                                    14 C    0 0 0   15 C    0 1 0   16 C    0 0 0
  17 C    3     2.8495     5.3847    1 C    1 1 0    2 C    1 0 0    5 C    0 0 0
  17 C    6     3.7695     7.1233    4 C    0 0 0    4 C    1 1 0    6 C    0 0 0
                                     6 C    1 0 0    7 C    0 0 0    7 C    0 1 0
  17 C    3     4.2742     8.0771   11 C    0 0 0   11 C    1 1 0   11 C    1 0 0
  17 C    6     4.9354     9.3266   10 C    0 0 0   12 C    0 0 0   13 C    1 1 0
                                    14 C    1 0 0   15 C    0 0 0   16 C    0 1 0


 SYMMETRY ALLOWED INTERNAL DEGREE(S) OF FREEDOM:  48
 TTTTTTTTTTTTTTTTTTTTTTTTTTTTTT SYMM        TELAPSE        2.73 TCPU        1.03
 TTTTTTTTTTTTTTTTTTTTTTTTTTTTTT INT_SCREEN  TELAPSE        2.73 TCPU        1.03
 INFORMATION **** EXCBUF **** EXCH. BIPO BUFFER: WORDS USED =           0

 DFT PARAMETERS

     ATOM       ELECTRONS   NET CHARGE   R(ANGSTROM)
   1   6  C       6.0000      0.0000     0.77000000

 SIZE OF GRID=     558265
 TTTTTTTTTTTTTTTTTTTTTTTTTTTTTT MAKE_GRID2  TELAPSE        3.13 TCPU        1.42
 BECKE WEIGHT FUNCTION
 RADSAFE =     2.00
 TOLERANCES - DENSITY:10**- 6; POTENTIAL:10**- 9; GRID WGT:10**-14

 RADIAL INTEGRATION  - INTERVALS (POINTS,UPPER LIMIT):            1( 75,  4.0*R)

 ANGULAR INTEGRATION - INTERVALS (ACCURACY LEVEL [N. POINTS] UPPER LIMIT):
  1(  4[  86]   0.2)  2(  8[ 194]   0.5)  3( 12[ 350]   0.9)  4( 16[ 974]   3.5)
  5( 12[ 350]9999.0)
 TTTTTTTTTTTTTTTTTTTTTTTTTTTTTT INT_CALC    TELAPSE        3.16 TCPU        1.45
 EEEEEEEEEE INT_CALC TERMINATION  DATE 31 10 2022 TIME 17:11:48.8

 *******************************************************************************
 Final                                                                           
 CRYSTAL - SCF - TYPE OF CALCULATION :  RESTRICTED CLOSED SHELL
 *******************************************************************************

 CAPPA:IS1  8;IS2  8;IS3  8; K PTS MONK NET 260; SYMMOPS:K SPACE   2;G SPACE   1

 TTTTTTTTTTTTTTTTTTTTTTTTTTTTTT SDIK        TELAPSE        3.23 TCPU        1.52

 AAAAAAAAAAAAAAAAAAAAAAAAAAAAAAAAAAAAAAAAAAAAAAAAAAAAAAAAAAAAAAAAAAAAAAAAAAAAAAA
         ATOMIC WAVEFUNCTION(S)


 NUCLEAR CHARGE  6.0  SYMMETRY SPECIES            S    P
 N. ELECTRONS    6.0  NUMBER OF PRIMITIVE GTOS   10    6
                      NUMBER OF CONTRACTED GTOS   4    3
                      NUMBER OF CLOSED SHELLS     2    0
                      OPEN SHELL OCCUPATION       0    2

  ZNUC SCFIT  TOTAL HF ENERGY   KINETIC ENERGY   VIRIAL THEOREM ACCURACY
   6.0  10   -3.768111494E+01  3.771190961E+01 -1.999183423E+00  3.4E-06

 AAAAAAAAAAAAAAAAAAAAAAAAAAAAAAAAAAAAAAAAAAAAAAAAAAAAAAAAAAAAAAAAAAAAAAAAAAAAAAA

 CHARGE NORMALIZATION FACTOR   1.00000000
 TOTAL ATOMIC CHARGES:
   6.0000000   6.0000000   6.0000000   6.0000000   6.0000000   6.0000000
   6.0000000   6.0000000   6.0000000   6.0000000   6.0000000   6.0000000
   6.0000000   6.0000000   6.0000000   6.0000000   6.0000000
 TTTTTTTTTTTTTTTTTTTTTTTTTTTTTT MOQGAD      TELAPSE        3.24 TCPU        1.53
 TTTTTTTTTTTTTTTTTTTTTTTTTTTTTT SHELLXN     TELAPSE        4.23 TCPU        2.52
 TTTTTTTTTTTTTTTTTTTTTTTTTTTTTT MONMO3      TELAPSE        4.36 TCPU        2.65
 NUMERICALLY INTEGRATED DENSITY    101.9998096860
 TTTTTTTTTTTTTTTTTTTTTTTTTTTTTT NUMDFT      TELAPSE        4.56 TCPU        2.85
 CYC   0 ETOT(AU) -6.515472853096E+02 DETOT -6.52E+02 tst  0.00E+00 PX  1.00E+00
 TTTTTTTTTTTTTTTTTTTTTTTTTTTTTT DIIS        TELAPSE        4.57 TCPU        2.86
 TTTTTTTTTTTTTTTTTTTTTTTTTTTTTT FDIK        TELAPSE        4.79 TCPU        3.08
 POSSIBLY CONDUCTING STATE - EFERMI(AU) -2.2951898E-01 (RES. CHARGE  2.34E-13;IT. 18)
 TTTTTTTTTTTTTTTTTTTTTTTTTTTTTT PDIG        TELAPSE        4.90 TCPU        3.19
 CHARGE NORMALIZATION FACTOR   1.00000000
 TOTAL ATOMIC CHARGES:
   5.9979030   5.9970846   6.1128844   5.7809774   5.9979065   5.7831664
   5.7831600   6.1128842   6.1120557   6.0527948   5.9950231   6.0528745
   6.0527973   6.0528142   6.0528181   6.0528823   6.0099735
 TTTTTTTTTTTTTTTTTTTTTTTTTTTTTT MOQGAD      TELAPSE        4.90 TCPU        3.19
 TTTTTTTTTTTTTTTTTTTTTTTTTTTTTT SHELLXN     TELAPSE        6.05 TCPU        4.33
 TTTTTTTTTTTTTTTTTTTTTTTTTTTTTT MONMO3      TELAPSE        6.20 TCPU        4.48
 NUMERICALLY INTEGRATED DENSITY    101.9998625868
 TTTTTTTTTTTTTTTTTTTTTTTTTTTTTT NUMDFT      TELAPSE        6.55 TCPU        4.83
 CYC   1 ETOT(AU) -6.468901993756E+02 DETOT  4.66E+00 tst  0.00E+00 PX  1.00E+00
 TTTTTTTTTTTTTTTTTTTTTTTTTTTTTT DIIS        TELAPSE        6.56 TCPU        4.85
 DIIS TEST: 0.10572E+01 AT SCF   CYCLE   1 - MIX   30 %
 TTTTTTTTTTTTTTTTTTTTTTTTTTTTTT FDIK        TELAPSE        6.81 TCPU        5.09
 POSSIBLY CONDUCTING STATE - EFERMI(AU) -2.0005710E-01 (RES. CHARGE  1.80E-12;IT. 14)
 TTTTTTTTTTTTTTTTTTTTTTTTTTTTTT PDIG        TELAPSE        6.93 TCPU        5.21
 CHARGE NORMALIZATION FACTOR   1.00000000
 TOTAL ATOMIC CHARGES:
   5.9025372   5.9034170   5.6386598   6.9428999   5.9025413   6.9334642
   6.9334594   5.6386597   5.6394765   5.8194647   5.8155513   5.8187946
   5.8194666   5.8193026   5.8193069   5.8188029   5.8341952
 TTTTTTTTTTTTTTTTTTTTTTTTTTTTTT MOQGAD      TELAPSE        6.93 TCPU        5.22
 TTTTTTTTTTTTTTTTTTTTTTTTTTTTTT SHELLXN     TELAPSE        8.07 TCPU        6.35
 TTTTTTTTTTTTTTTTTTTTTTTTTTTTTT MONMO3      TELAPSE        8.26 TCPU        6.54
 NUMERICALLY INTEGRATED DENSITY    101.9998441667
 TTTTTTTTTTTTTTTTTTTTTTTTTTTTTT NUMDFT      TELAPSE        8.71 TCPU        6.99
 CYC   2 ETOT(AU) -6.462330425815E+02 DETOT  6.57E-01 tst  1.20E-02 PX  3.30E-01
 TTTTTTTTTTTTTTTTTTTTTTTTTTTTTT DIIS        TELAPSE        8.73 TCPU        7.01
 DIIS TEST: 0.81408E+01 AT SCF   CYCLE   2 - DIIS ACTIVE - HISTORY:     2 CYCLES
 TTTTTTTTTTTTTTTTTTTTTTTTTTTTTT FDIK        TELAPSE        8.95 TCPU        7.23
 POSSIBLY CONDUCTING STATE - EFERMI(AU) -1.3321962E-01 (RES. CHARGE  5.65E-12;IT. 12)
 TTTTTTTTTTTTTTTTTTTTTTTTTTTTTT PDIG        TELAPSE        9.07 TCPU        7.34
 CHARGE NORMALIZATION FACTOR   1.00000000
 TOTAL ATOMIC CHARGES:
   6.0716208   6.0722427   6.0875608   5.9348599   6.0716248   5.9418714
   5.9418639   6.0875606   6.0881621   5.9476706   5.9520224   5.9482797
   5.9476732   5.9479962   5.9480008   5.9482888   6.0627016
 TTTTTTTTTTTTTTTTTTTTTTTTTTTTTT MOQGAD      TELAPSE        9.07 TCPU        7.35
 TTTTTTTTTTTTTTTTTTTTTTTTTTTTTT SHELLXN     TELAPSE       10.21 TCPU        8.48
 TTTTTTTTTTTTTTTTTTTTTTTTTTTTTT MONMO3      TELAPSE       10.36 TCPU        8.63
 NUMERICALLY INTEGRATED DENSITY    101.9998224993
 TTTTTTTTTTTTTTTTTTTTTTTTTTTTTT NUMDFT      TELAPSE       10.71 TCPU        8.98
 CYC   3 ETOT(AU) -6.470135234943E+02 DETOT -7.80E-01 tst  7.21E-03 PX  3.00E-01
 TTTTTTTTTTTTTTTTTTTTTTTTTTTTTT DIIS        TELAPSE       10.72 TCPU        8.99
 DIIS TEST: 0.23928E+00 AT SCF   CYCLE   3 - DIIS ACTIVE - HISTORY:     3 CYCLES
 TTTTTTTTTTTTTTTTTTTTTTTTTTTTTT FDIK        TELAPSE       10.97 TCPU        9.24
 POSSIBLY CONDUCTING STATE - EFERMI(AU) -1.6978298E-01 (RES. CHARGE  1.99E-13;IT. 12)
 TTTTTTTTTTTTTTTTTTTTTTTTTTTTTT PDIG        TELAPSE       11.10 TCPU        9.37
 CHARGE NORMALIZATION FACTOR   1.00000000
 TOTAL ATOMIC CHARGES:
   5.9575475   5.9562034   5.9532455   6.0868743   5.9575516   6.0680290
   6.0680234   5.9532455   5.9538323   6.0290131   5.9556588   6.0271564
   6.0290155   6.0277496   6.0277541   6.0271654   5.9219346
 TTTTTTTTTTTTTTTTTTTTTTTTTTTTTT MOQGAD      TELAPSE       11.10 TCPU        9.37
 TTTTTTTTTTTTTTTTTTTTTTTTTTTTTT SHELLXN     TELAPSE       12.23 TCPU       10.50
 TTTTTTTTTTTTTTTTTTTTTTTTTTTTTT MONMO3      TELAPSE       12.38 TCPU       10.65
 NUMERICALLY INTEGRATED DENSITY    101.9998379675
 TTTTTTTTTTTTTTTTTTTTTTTTTTTTTT NUMDFT      TELAPSE       12.73 TCPU       10.99
 CYC   4 ETOT(AU) -6.470370831041E+02 DETOT -2.36E-02 tst  3.15E-04 PX  6.18E-02
 TTTTTTTTTTTTTTTTTTTTTTTTTTTTTT DIIS        TELAPSE       12.75 TCPU       11.02
 DIIS TEST: 0.96181E-01 AT SCF   CYCLE   4 - DIIS ACTIVE - HISTORY:     4 CYCLES
 TTTTTTTTTTTTTTTTTTTTTTTTTTTTTT FDIK        TELAPSE       12.99 TCPU       11.26
 POSSIBLY CONDUCTING STATE - EFERMI(AU) -1.7253045E-01 (RES. CHARGE  4.04E-10;IT. 12)
 TTTTTTTTTTTTTTTTTTTTTTTTTTTTTT PDIG        TELAPSE       13.12 TCPU       11.38
 CHARGE NORMALIZATION FACTOR   1.00000000
 TOTAL ATOMIC CHARGES:
   6.0035309   6.0061835   6.0268966   6.0403916   6.0035352   6.0773473
   6.0773387   6.0268963   6.0260068   5.9590717   5.9467722   5.9623633
   5.9590742   5.9611684   5.9611726   5.9623720   5.9998786
 TTTTTTTTTTTTTTTTTTTTTTTTTTTTTT MOQGAD      TELAPSE       13.12 TCPU       11.38
 TTTTTTTTTTTTTTTTTTTTTTTTTTTTTT SHELLXN     TELAPSE       14.25 TCPU       12.52
 TTTTTTTTTTTTTTTTTTTTTTTTTTTTTT MONMO3      TELAPSE       14.40 TCPU       12.67
 NUMERICALLY INTEGRATED DENSITY    101.9998374203
 TTTTTTTTTTTTTTTTTTTTTTTTTTTTTT NUMDFT      TELAPSE       14.75 TCPU       13.01
 CYC   5 ETOT(AU) -6.470464869983E+02 DETOT -9.40E-03 tst  2.44E-04 PX  2.56E-02
 TTTTTTTTTTTTTTTTTTTTTTTTTTTTTT DIIS        TELAPSE       14.77 TCPU       13.03
 DIIS TEST: 0.10680E-01 AT SCF   CYCLE   5 - DIIS ACTIVE - HISTORY:     5 CYCLES
 TTTTTTTTTTTTTTTTTTTTTTTTTTTTTT FDIK        TELAPSE       15.01 TCPU       13.28
 POSSIBLY CONDUCTING STATE - EFERMI(AU) -1.7098099E-01 (RES. CHARGE  4.82E-12;IT. 12)
 TTTTTTTTTTTTTTTTTTTTTTTTTTTTTT PDIG        TELAPSE       15.13 TCPU       13.39
 CHARGE NORMALIZATION FACTOR   1.00000000
 TOTAL ATOMIC CHARGES:
   6.0165871   6.0115362   6.0182799   6.0936370   6.0165909   6.0066806
   6.0066792   6.0182799   6.0178753   5.9794469   5.9522271   5.9720636
   5.9794492   5.9749258   5.9749307   5.9720728   5.9887378
 TTTTTTTTTTTTTTTTTTTTTTTTTTTTTT MOQGAD      TELAPSE       15.13 TCPU       13.39
 TTTTTTTTTTTTTTTTTTTTTTTTTTTTTT SHELLXN     TELAPSE       16.27 TCPU       14.53
 TTTTTTTTTTTTTTTTTTTTTTTTTTTTTT MONMO3      TELAPSE       16.42 TCPU       14.68
 NUMERICALLY INTEGRATED DENSITY    101.9998368641
 TTTTTTTTTTTTTTTTTTTTTTTTTTTTTT NUMDFT      TELAPSE       16.76 TCPU       15.02
 CYC   6 ETOT(AU) -6.470466226386E+02 DETOT -1.36E-04 tst  1.14E-04 PX  1.24E-02
 TTTTTTTTTTTTTTTTTTTTTTTTTTTTTT DIIS        TELAPSE       16.78 TCPU       15.04
 DIIS TEST: 0.91671E-02 AT SCF   CYCLE   6 - DIIS ACTIVE - HISTORY:     6 CYCLES
 TTTTTTTTTTTTTTTTTTTTTTTTTTTTTT FDIK        TELAPSE       17.03 TCPU       15.29
 POSSIBLY CONDUCTING STATE - EFERMI(AU) -1.7066638E-01 (RES. CHARGE  1.91E-10;IT. 10)
 TTTTTTTTTTTTTTTTTTTTTTTTTTTTTT PDIG        TELAPSE       17.15 TCPU       15.41
 CHARGE NORMALIZATION FACTOR   1.00000000
 TOTAL ATOMIC CHARGES:
   6.0109552   6.0115302   6.0187054   6.0189012   6.0109593   6.0346680
   6.0346599   6.0187054   6.0190120   5.9797165   5.9519087   5.9809909
   5.9797191   5.9806237   5.9806280   5.9809996   5.9873168
 TTTTTTTTTTTTTTTTTTTTTTTTTTTTTT MOQGAD      TELAPSE       17.15 TCPU       15.41
 TTTTTTTTTTTTTTTTTTTTTTTTTTTTTT SHELLXN     TELAPSE       18.29 TCPU       16.54
 TTTTTTTTTTTTTTTTTTTTTTTTTTTTTT MONMO3      TELAPSE       18.43 TCPU       16.69
 NUMERICALLY INTEGRATED DENSITY    101.9998368978
 TTTTTTTTTTTTTTTTTTTTTTTTTTTTTT NUMDFT      TELAPSE       18.89 TCPU       17.15
 CYC   7 ETOT(AU) -6.470476522563E+02 DETOT -1.03E-03 tst  7.57E-05 PX  1.54E-02
 TTTTTTTTTTTTTTTTTTTTTTTTTTTTTT DIIS        TELAPSE       18.92 TCPU       17.17
 DIIS TEST: 0.51169E-03 AT SCF   CYCLE   7 - DIIS ACTIVE - HISTORY:     7 CYCLES
 TTTTTTTTTTTTTTTTTTTTTTTTTTTTTT FDIK        TELAPSE       19.20 TCPU       17.45
 POSSIBLY CONDUCTING STATE - EFERMI(AU) -1.7070821E-01 (RES. CHARGE  1.34E-10;IT.  8)
 TTTTTTTTTTTTTTTTTTTTTTTTTTTTTT PDIG        TELAPSE       19.32 TCPU       17.56
 CHARGE NORMALIZATION FACTOR   1.00000000
 TOTAL ATOMIC CHARGES:
   6.0052194   6.0055384   6.0216034   6.0311260   6.0052235   6.0285305
   6.0285247   6.0216033   6.0214527   5.9818838   5.9512842   5.9817840
   5.9818862   5.9816755   5.9816800   5.9817929   5.9891915
 TTTTTTTTTTTTTTTTTTTTTTTTTTTTTT MOQGAD      TELAPSE       19.32 TCPU       17.57
 TTTTTTTTTTTTTTTTTTTTTTTTTTTTTT SHELLXN     TELAPSE       20.47 TCPU       18.71
 TTTTTTTTTTTTTTTTTTTTTTTTTTTTTT MONMO3      TELAPSE       20.61 TCPU       18.86
 NUMERICALLY INTEGRATED DENSITY    101.9998368508
 TTTTTTTTTTTTTTTTTTTTTTTTTTTTTT NUMDFT      TELAPSE       21.06 TCPU       19.30
 CYC   8 ETOT(AU) -6.470477101674E+02 DETOT -5.79E-05 tst  2.24E-06 PX  2.65E-03
 TTTTTTTTTTTTTTTTTTTTTTTTTTTTTT DIIS        TELAPSE       21.11 TCPU       19.35
 DIIS TEST: 0.29636E-04 AT SCF   CYCLE   8 - DIIS ACTIVE - HISTORY:     8 CYCLES
 TTTTTTTTTTTTTTTTTTTTTTTTTTTTTT FDIK        TELAPSE       21.42 TCPU       19.65
 POSSIBLY CONDUCTING STATE - EFERMI(AU) -1.7069740E-01 (RES. CHARGE  7.11E-14;IT.  8)
 TTTTTTTTTTTTTTTTTTTTTTTTTTTTTT PDIG        TELAPSE       21.54 TCPU       19.77
 CHARGE NORMALIZATION FACTOR   1.00000000
 TOTAL ATOMIC CHARGES:
   6.0055386   6.0053844   6.0210710   6.0296482   6.0055428   6.0293556
   6.0293468   6.0210708   6.0212002   5.9816563   5.9539358   5.9815301
   5.9816589   5.9816251   5.9816293   5.9815389   5.9882672
 TTTTTTTTTTTTTTTTTTTTTTTTTTTTTT MOQGAD      TELAPSE       21.54 TCPU       19.77
 TTTTTTTTTTTTTTTTTTTTTTTTTTTTTT SHELLXN     TELAPSE       22.68 TCPU       20.90
 TTTTTTTTTTTTTTTTTTTTTTTTTTTTTT MONMO3      TELAPSE       22.83 TCPU       21.06
 NUMERICALLY INTEGRATED DENSITY    101.9998368472
 TTTTTTTTTTTTTTTTTTTTTTTTTTTTTT NUMDFT      TELAPSE       23.30 TCPU       21.53
 CYC   9 ETOT(AU) -6.470477124238E+02 DETOT -2.26E-06 tst  5.14E-08 PX  3.67E-04
 TTTTTTTTTTTTTTTTTTTTTTTTTTTTTT DIIS        TELAPSE       23.32 TCPU       21.55
 DIIS TEST: 0.40468E-05 AT SCF   CYCLE   9 - DIIS ACTIVE - HISTORY:     9 CYCLES
 TTTTTTTTTTTTTTTTTTTTTTTTTTTTTT FDIK        TELAPSE       23.55 TCPU       21.77
 POSSIBLY CONDUCTING STATE - EFERMI(AU) -1.7071887E-01 (RES. CHARGE  9.86E-12;IT.  8)
 TTTTTTTTTTTTTTTTTTTTTTTTTTTTTT PDIG        TELAPSE       23.67 TCPU       21.89
 CHARGE NORMALIZATION FACTOR   1.00000000
 TOTAL ATOMIC CHARGES:
   6.0059160   6.0061010   6.0207944   6.0300984   6.0059198   6.0296095
   6.0296075   6.0207946   6.0206127   5.9816383   5.9525702   5.9816948
   5.9816407   5.9815653   5.9815701   5.9817040   5.9881628
 TTTTTTTTTTTTTTTTTTTTTTTTTTTTTT MOQGAD      TELAPSE       23.67 TCPU       21.89
 TTTTTTTTTTTTTTTTTTTTTTTTTTTTTT SHELLXN     TELAPSE       24.80 TCPU       23.03
 TTTTTTTTTTTTTTTTTTTTTTTTTTTTTT MONMO3      TELAPSE       24.95 TCPU       23.18
 NUMERICALLY INTEGRATED DENSITY    101.9998368539
 TTTTTTTTTTTTTTTTTTTTTTTTTTTTTT NUMDFT      TELAPSE       25.31 TCPU       23.53
 CYC  10 ETOT(AU) -6.470477126793E+02 DETOT -2.56E-07 tst  6.28E-09 PX  1.88E-04
 TTTTTTTTTTTTTTTTTTTTTTTTTTTTTT DIIS        TELAPSE       25.33 TCPU       23.55
 DIIS TEST: 0.26486E-06 AT SCF   CYCLE  10 - DIIS ACTIVE - HISTORY:    10 CYCLES
 TTTTTTTTTTTTTTTTTTTTTTTTTTTTTT FDIK        TELAPSE       25.58 TCPU       23.80
 POSSIBLY CONDUCTING STATE - EFERMI(AU) -1.7071634E-01 (RES. CHARGE  2.30E-11;IT.  6)
 TTTTTTTTTTTTTTTTTTTTTTTTTTTTTT PDIG        TELAPSE       25.70 TCPU       23.92
 CHARGE NORMALIZATION FACTOR   1.00000000
 TOTAL ATOMIC CHARGES:
   6.0060203   6.0060352   6.0207311   6.0300495   6.0060253   6.0295669
   6.0295490   6.0207303   6.0207988   5.9816587   5.9525306   5.9815927
   5.9816615   5.9816432   5.9816467   5.9816010   5.9881594
 TTTTTTTTTTTTTTTTTTTTTTTTTTTTTT MOQGAD      TELAPSE       25.70 TCPU       23.92
 TTTTTTTTTTTTTTTTTTTTTTTTTTTTTT SHELLXN     TELAPSE       26.83 TCPU       25.05
 TTTTTTTTTTTTTTTTTTTTTTTTTTTTTT MONMO3      TELAPSE       26.98 TCPU       25.20
 NUMERICALLY INTEGRATED DENSITY    101.9998368523
 TTTTTTTTTTTTTTTTTTTTTTTTTTTTTT NUMDFT      TELAPSE       27.33 TCPU       25.55
 CYC  11 ETOT(AU) -6.470477127399E+02 DETOT -6.06E-08 tst  6.84E-10 PX  4.36E-05
 TTTTTTTTTTTTTTTTTTTTTTTTTTTTTT DIIS        TELAPSE       27.35 TCPU       25.57
 DIIS TEST: 0.10310E-06 AT SCF   CYCLE  11 - DIIS ACTIVE - HISTORY:    11 CYCLES
 TTTTTTTTTTTTTTTTTTTTTTTTTTTTTT FDIK        TELAPSE       27.60 TCPU       25.82
 POSSIBLY CONDUCTING STATE - EFERMI(AU) -1.7071364E-01 (RES. CHARGE  2.82E-11;IT.  6)
 TTTTTTTTTTTTTTTTTTTTTTTTTTTTTT PDIG        TELAPSE       27.72 TCPU       25.93
 CHARGE NORMALIZATION FACTOR   1.00000000
 TOTAL ATOMIC CHARGES:
   6.0060172   6.0060896   6.0207849   6.0300243   6.0060197   6.0294854
   6.0294999   6.0207860   6.0207406   5.9816608   5.9525963   5.9816304
   5.9816627   5.9815950   5.9816012   5.9816404   5.9881657
 TTTTTTTTTTTTTTTTTTTTTTTTTTTTTT MOQGAD      TELAPSE       27.72 TCPU       25.93
 TTTTTTTTTTTTTTTTTTTTTTTTTTTTTT SHELLXN     TELAPSE       28.85 TCPU       27.07
 TTTTTTTTTTTTTTTTTTTTTTTTTTTTTT MONMO3      TELAPSE       29.00 TCPU       27.22
 NUMERICALLY INTEGRATED DENSITY    101.9998368510
 TTTTTTTTTTTTTTTTTTTTTTTTTTTTTT NUMDFT      TELAPSE       29.35 TCPU       27.56
 CYC  12 ETOT(AU) -6.470477127557E+02 DETOT -1.58E-08 tst  1.07E-10 PX  2.61E-05
 TTTTTTTTTTTTTTTTTTTTTTTTTTTTTT DIIS        TELAPSE       29.38 TCPU       27.59
 DIIS TEST: 0.18818E-08 AT SCF   CYCLE  12 - DIIS ACTIVE - HISTORY:    12 CYCLES
 TTTTTTTTTTTTTTTTTTTTTTTTTTTTTT FDIK        TELAPSE       29.63 TCPU       27.84
 POSSIBLY CONDUCTING STATE - EFERMI(AU) -1.7071430E-01 (RES. CHARGE  9.66E-13;IT.  6)
 TTTTTTTTTTTTTTTTTTTTTTTTTTTTTT PDIG        TELAPSE       29.74 TCPU       27.95
 CHARGE NORMALIZATION FACTOR   1.00000000
 TOTAL ATOMIC CHARGES:
   6.0060088   6.0060918   6.0207716   6.0300519   6.0060175   6.0295263
   6.0294600   6.0207681   6.0207343   5.9816533   5.9525972   5.9816362
   5.9816574   5.9816070   5.9816065   5.9816416   5.9881706
 TTTTTTTTTTTTTTTTTTTTTTTTTTTTTT MOQGAD      TELAPSE       29.74 TCPU       27.95
 TTTTTTTTTTTTTTTTTTTTTTTTTTTTTT SHELLXN     TELAPSE       30.88 TCPU       29.08
 TTTTTTTTTTTTTTTTTTTTTTTTTTTTTT MONMO3      TELAPSE       31.03 TCPU       29.23
 NUMERICALLY INTEGRATED DENSITY    101.9998368515
 TTTTTTTTTTTTTTTTTTTTTTTTTTTTTT NUMDFT      TELAPSE       31.48 TCPU       29.68
 CYC  13 ETOT(AU) -6.470477127551E+02 DETOT  6.48E-10 tst  4.13E-11 PX  9.98E-06
 TTTTTTTTTTTTTTTTTTTTTTTTTTTTTT DIIS        TELAPSE       31.50 TCPU       29.71
 DIIS TEST: 0.32767E-08 AT SCF   CYCLE  13 - DIIS ACTIVE - HISTORY:    13 CYCLES
 TTTTTTTTTTTTTTTTTTTTTTTTTTTTTT FDIK        TELAPSE       31.75 TCPU       29.96
 POSSIBLY CONDUCTING STATE - EFERMI(AU) -1.7071443E-01 (RES. CHARGE  7.49E-10;IT.  4)
 TTTTTTTTTTTTTTTTTTTTTTTTTTTTTT PDIG        TELAPSE       31.87 TCPU       30.07
 CHARGE NORMALIZATION FACTOR   1.00000000
 TOTAL ATOMIC CHARGES:
   6.0060122   6.0060909   6.0207688   6.0300536   6.0060152   6.0294908
   6.0294980   6.0207695   6.0207320   5.9816547   5.9525962   5.9816339
   5.9816568   5.9816043   5.9816099   5.9816435   5.9881697
 TTTTTTTTTTTTTTTTTTTTTTTTTTTTTT MOQGAD      TELAPSE       31.87 TCPU       30.07
 TTTTTTTTTTTTTTTTTTTTTTTTTTTTTT SHELLXN     TELAPSE       33.00 TCPU       31.21
 +++ ENERGIES IN A.U. +++
 ::: EXT EL-POLE                                  -1.0044180581003E+03
 ::: EXT EL-SPHEROPOLE                             7.8034833147225E+00
 ::: BIELET ZONE E-E                               1.4807799738734E+03
 ::: TOTAL E-E                                     4.8416539908781E+02
 ::: TOTAL E-N + N-E                              -1.8502235924341E+03
 ::: TOTAL N-N                                     1.6660125203976E+02
 ::: KINETIC ENERGY                                6.4393642529253E+02
 ::: PSEUDO TOTAL   ENERGY                        -5.5552051601402E+02
 ::: VIRIAL COEFFICIENT                            1.0737132832648E+00
 TTTTTTTTTTTTTTTTTTTTTTTTTTTTTT MONMO3      TELAPSE       33.15 TCPU       31.36
 NUMERICALLY INTEGRATED DENSITY    101.9998368515
 TTTTTTTTTTTTTTTTTTTTTTTTTTTTTT NUMDFT      TELAPSE       33.50 TCPU       31.70
 CYC  14 ETOT(AU) -6.470477127493E+02 DETOT  5.78E-09 tst  3.34E-11 PX  9.98E-06

 == SCF ENDED - CONVERGENCE ON ENERGY      E(AU) -6.4704771274932E+02 CYCLES  14


 ENERGY EXPRESSION=HARTREE+FOCK EXCH*0.00000+(PBE        EXCH)*1.00000+PBE        CORR


 TOTAL ENERGY(DFT)(AU)( 14) -6.4704771274932E+02 DE 5.8E-09 tester 3.3E-11
 TTTTTTTTTTTTTTTTTTTTTTTTTTTTTT EDFT        TELAPSE       33.50 TCPU       31.71
 EIGENVECTORS IN FORTRAN UNIT  8
 TTTTTTTTTTTTTTTTTTTTTTTTTTTTTT END         TELAPSE       33.67 TCPU       31.87
 EEEEEEEEEE TERMINATION  DATE 31 10 2022 TIME 17:12:19.4
NODE    0 CPU TIME =        31.873
    TOTAL CPU TIME =      4110.285
Note: The following floating-point exceptions are signalling: IEEE_UNDERFLOW_FLAG IEEE_DENORMAL
Note: The following floating-point exceptions are signalling: IEEE_UNDERFLOW_FLAG IEEE_DENORMAL
Note: The following floating-point exceptions are signalling: IEEE_UNDERFLOW_FLAG IEEE_DENORMAL
Note: The following floating-point exceptions are signalling: IEEE_UNDERFLOW_FLAG IEEE_DENORMAL
Note: The following floating-point exceptions are signalling: IEEE_UNDERFLOW_FLAG IEEE_DENORMAL
Note: The following floating-point exceptions are signalling: IEEE_UNDERFLOW_FLAG IEEE_DENORMAL
Note: The following floating-point exceptions are signalling: IEEE_UNDERFLOW_FLAG IEEE_DENORMAL
Note: The following floating-point exceptions are signalling: IEEE_UNDERFLOW_FLAG IEEE_DENORMAL
Note: The following floating-point exceptions are signalling: IEEE_UNDERFLOW_FLAG IEEE_DENORMAL
Note: The following floating-point exceptions are signalling: IEEE_UNDERFLOW_FLAG IEEE_DENORMAL
Note: The following floating-point exceptions are signalling: IEEE_UNDERFLOW_FLAG IEEE_DENORMAL
Note: The following floating-point exceptions are signalling: IEEE_UNDERFLOW_FLAG IEEE_DENORMAL
Note: The following floating-point exceptions are signalling: IEEE_UNDERFLOW_FLAG IEEE_DENORMAL
Note: The following floating-point exceptions are signalling: IEEE_UNDERFLOW_FLAG IEEE_DENORMAL
Note: The following floating-point exceptions are signalling: IEEE_UNDERFLOW_FLAG IEEE_DENORMAL
Note: The following floating-point exceptions are signalling: IEEE_UNDERFLOW_FLAG IEEE_DENORMAL
Note: The following floating-point exceptions are signalling: IEEE_UNDERFLOW_FLAG IEEE_DENORMAL
Note: The following floating-point exceptions are signalling: IEEE_UNDERFLOW_FLAG IEEE_DENORMAL
Note: The following floating-point exceptions are signalling: IEEE_UNDERFLOW_FLAG IEEE_DENORMAL
Note: The following floating-point exceptions are signalling: IEEE_UNDERFLOW_FLAG IEEE_DENORMAL
Note: The following floating-point exceptions are signalling: IEEE_UNDERFLOW_FLAG IEEE_DENORMAL
Note: The following floating-point exceptions are signalling: IEEE_UNDERFLOW_FLAG IEEE_DENORMAL
Note: The following floating-point exceptions are signalling: IEEE_UNDERFLOW_FLAG IEEE_DENORMAL
Note: The following floating-point exceptions are signalling: IEEE_UNDERFLOW_FLAG IEEE_DENORMAL
Note: The following floating-point exceptions are signalling: IEEE_UNDERFLOW_FLAG IEEE_DENORMAL
Note: The following floating-point exceptions are signalling: IEEE_UNDERFLOW_FLAG IEEE_DENORMAL
Note: The following floating-point exceptions are signalling: IEEE_UNDERFLOW_FLAG IEEE_DENORMAL
Note: The following floating-point exceptions are signalling: IEEE_UNDERFLOW_FLAG IEEE_DENORMAL
Note: The following floating-point exceptions are signalling: IEEE_UNDERFLOW_FLAG IEEE_DENORMAL
Note: The following floating-point exceptions are signalling: IEEE_UNDERFLOW_FLAG IEEE_DENORMAL
Note: The following floating-point exceptions are signalling: IEEE_UNDERFLOW_FLAG IEEE_DENORMAL
Note: The following floating-point exceptions are signalling: IEEE_UNDERFLOW_FLAG IEEE_DENORMAL
Note: The following floating-point exceptions are signalling: IEEE_UNDERFLOW_FLAG IEEE_DENORMAL
Note: The following floating-point exceptions are signalling: IEEE_UNDERFLOW_FLAG IEEE_DENORMAL
Note: The following floating-point exceptions are signalling: IEEE_UNDERFLOW_FLAG IEEE_DENORMAL
Note: The following floating-point exceptions are signalling: IEEE_UNDERFLOW_FLAG IEEE_DENORMAL
Note: The following floating-point exceptions are signalling: IEEE_UNDERFLOW_FLAG IEEE_DENORMAL
Note: The following floating-point exceptions are signalling: IEEE_UNDERFLOW_FLAG IEEE_DENORMAL
Note: The following floating-point exceptions are signalling: IEEE_UNDERFLOW_FLAG IEEE_DENORMAL
Note: The following floating-point exceptions are signalling: IEEE_UNDERFLOW_FLAG IEEE_DENORMAL
Note: The following floating-point exceptions are signalling: IEEE_UNDERFLOW_FLAG IEEE_DENORMAL
Note: The following floating-point exceptions are signalling: IEEE_UNDERFLOW_FLAG IEEE_DENORMAL
Note: The following floating-point exceptions are signalling: IEEE_UNDERFLOW_FLAG IEEE_DENORMAL
Note: The following floating-point exceptions are signalling: IEEE_UNDERFLOW_FLAG IEEE_DENORMAL
Note: The following floating-point exceptions are signalling: IEEE_UNDERFLOW_FLAG IEEE_DENORMAL
Note: The following floating-point exceptions are signalling: IEEE_UNDERFLOW_FLAG IEEE_DENORMAL
Note: The following floating-point exceptions are signalling: IEEE_UNDERFLOW_FLAG IEEE_DENORMAL
Note: The following floating-point exceptions are signalling: IEEE_UNDERFLOW_FLAG IEEE_DENORMAL
Note: The following floating-point exceptions are signalling: IEEE_UNDERFLOW_FLAG IEEE_DENORMAL
Note: The following floating-point exceptions are signalling: IEEE_UNDERFLOW_FLAG IEEE_DENORMAL
Note: The following floating-point exceptions are signalling: IEEE_UNDERFLOW_FLAG IEEE_DENORMAL
Note: The following floating-point exceptions are signalling: IEEE_UNDERFLOW_FLAG IEEE_DENORMAL
Note: The following floating-point exceptions are signalling: IEEE_UNDERFLOW_FLAG IEEE_DENORMAL
Note: The following floating-point exceptions are signalling: IEEE_UNDERFLOW_FLAG IEEE_DENORMAL
Note: The following floating-point exceptions are signalling: IEEE_UNDERFLOW_FLAG IEEE_DENORMAL
Note: The following floating-point exceptions are signalling: IEEE_UNDERFLOW_FLAG IEEE_DENORMAL
Note: The following floating-point exceptions are signalling: IEEE_UNDERFLOW_FLAG IEEE_DENORMAL
Note: The following floating-point exceptions are signalling: IEEE_UNDERFLOW_FLAG IEEE_DENORMAL
Note: The following floating-point exceptions are signalling: IEEE_UNDERFLOW_FLAG IEEE_DENORMAL
Note: The following floating-point exceptions are signalling: IEEE_UNDERFLOW_FLAG IEEE_DENORMAL
Note: The following floating-point exceptions are signalling: IEEE_UNDERFLOW_FLAG IEEE_DENORMAL
Note: The following floating-point exceptions are signalling: IEEE_UNDERFLOW_FLAG IEEE_DENORMAL
Note: The following floating-point exceptions are signalling: IEEE_UNDERFLOW_FLAG IEEE_DENORMAL
Note: The following floating-point exceptions are signalling: IEEE_UNDERFLOW_FLAG IEEE_DENORMAL
Note: The following floating-point exceptions are signalling: IEEE_UNDERFLOW_FLAG IEEE_DENORMAL
Note: The following floating-point exceptions are signalling: IEEE_UNDERFLOW_FLAG IEEE_DENORMAL
Note: The following floating-point exceptions are signalling: IEEE_UNDERFLOW_FLAG IEEE_DENORMAL
Note: The following floating-point exceptions are signalling: IEEE_UNDERFLOW_FLAG IEEE_DENORMAL
Note: The following floating-point exceptions are signalling: IEEE_UNDERFLOW_FLAG IEEE_DENORMAL
Note: The following floating-point exceptions are signalling: IEEE_UNDERFLOW_FLAG IEEE_DENORMAL
Note: The following floating-point exceptions are signalling: IEEE_UNDERFLOW_FLAG IEEE_DENORMAL
Note: The following floating-point exceptions are signalling: IEEE_UNDERFLOW_FLAG IEEE_DENORMAL
Note: The following floating-point exceptions are signalling: IEEE_UNDERFLOW_FLAG IEEE_DENORMAL
Note: The following floating-point exceptions are signalling: IEEE_UNDERFLOW_FLAG IEEE_DENORMAL
Note: The following floating-point exceptions are signalling: IEEE_UNDERFLOW_FLAG IEEE_DENORMAL
Note: The following floating-point exceptions are signalling: IEEE_UNDERFLOW_FLAG IEEE_DENORMAL
Note: The following floating-point exceptions are signalling: IEEE_UNDERFLOW_FLAG IEEE_DENORMAL
Note: The following floating-point exceptions are signalling: IEEE_UNDERFLOW_FLAG IEEE_DENORMAL
Note: The following floating-point exceptions are signalling: IEEE_UNDERFLOW_FLAG IEEE_DENORMAL
Note: The following floating-point exceptions are signalling: IEEE_UNDERFLOW_FLAG IEEE_DENORMAL
Note: The following floating-point exceptions are signalling: IEEE_UNDERFLOW_FLAG IEEE_DENORMAL
Note: The following floating-point exceptions are signalling: IEEE_UNDERFLOW_FLAG IEEE_DENORMAL
Note: The following floating-point exceptions are signalling: IEEE_UNDERFLOW_FLAG IEEE_DENORMAL
Note: The following floating-point exceptions are signalling: IEEE_UNDERFLOW_FLAG IEEE_DENORMAL
Note: The following floating-point exceptions are signalling: IEEE_UNDERFLOW_FLAG IEEE_DENORMAL
Note: The following floating-point exceptions are signalling: IEEE_UNDERFLOW_FLAG IEEE_DENORMAL
Note: The following floating-point exceptions are signalling: IEEE_UNDERFLOW_FLAG IEEE_DENORMAL
Note: The following floating-point exceptions are signalling: IEEE_UNDERFLOW_FLAG IEEE_DENORMAL
Note: The following floating-point exceptions are signalling: IEEE_UNDERFLOW_FLAG IEEE_DENORMAL
Note: The following floating-point exceptions are signalling: IEEE_UNDERFLOW_FLAG IEEE_DENORMAL
Note: The following floating-point exceptions are signalling: IEEE_UNDERFLOW_FLAG IEEE_DENORMAL
Note: The following floating-point exceptions are signalling: IEEE_UNDERFLOW_FLAG IEEE_DENORMAL
Note: The following floating-point exceptions are signalling: IEEE_UNDERFLOW_FLAG IEEE_DENORMAL
Note: The following floating-point exceptions are signalling: IEEE_UNDERFLOW_FLAG IEEE_DENORMAL
Note: The following floating-point exceptions are signalling: IEEE_UNDERFLOW_FLAG IEEE_DENORMAL
Note: The following floating-point exceptions are signalling: IEEE_UNDERFLOW_FLAG IEEE_DENORMAL
Note: The following floating-point exceptions are signalling: IEEE_UNDERFLOW_FLAG IEEE_DENORMAL
Note: The following floating-point exceptions are signalling: IEEE_UNDERFLOW_FLAG IEEE_DENORMAL
Note: The following floating-point exceptions are signalling: IEEE_UNDERFLOW_FLAG IEEE_DENORMAL
Note: The following floating-point exceptions are signalling: IEEE_UNDERFLOW_FLAG IEEE_DENORMAL
Note: The following floating-point exceptions are signalling: IEEE_UNDERFLOW_FLAG IEEE_DENORMAL
Note: The following floating-point exceptions are signalling: IEEE_UNDERFLOW_FLAG IEEE_DENORMAL
Note: The following floating-point exceptions are signalling: IEEE_UNDERFLOW_FLAG IEEE_DENORMAL
Note: The following floating-point exceptions are signalling: IEEE_UNDERFLOW_FLAG IEEE_DENORMAL
Note: The following floating-point exceptions are signalling: IEEE_UNDERFLOW_FLAG IEEE_DENORMAL
Note: The following floating-point exceptions are signalling: IEEE_UNDERFLOW_FLAG IEEE_DENORMAL
Note: The following floating-point exceptions are signalling: IEEE_UNDERFLOW_FLAG IEEE_DENORMAL
Note: The following floating-point exceptions are signalling: IEEE_UNDERFLOW_FLAG IEEE_DENORMAL
Note: The following floating-point exceptions are signalling: IEEE_UNDERFLOW_FLAG IEEE_DENORMAL
Note: The following floating-point exceptions are signalling: IEEE_UNDERFLOW_FLAG IEEE_DENORMAL
Note: The following floating-point exceptions are signalling: IEEE_UNDERFLOW_FLAG IEEE_DENORMAL
Note: The following floating-point exceptions are signalling: IEEE_UNDERFLOW_FLAG IEEE_DENORMAL
Note: The following floating-point exceptions are signalling: IEEE_UNDERFLOW_FLAG IEEE_DENORMAL
Note: The following floating-point exceptions are signalling: IEEE_UNDERFLOW_FLAG IEEE_DENORMAL
Note: The following floating-point exceptions are signalling: IEEE_UNDERFLOW_FLAG IEEE_DENORMAL
Note: The following floating-point exceptions are signalling: IEEE_UNDERFLOW_FLAG IEEE_DENORMAL
Note: The following floating-point exceptions are signalling: IEEE_UNDERFLOW_FLAG IEEE_DENORMAL
Note: The following floating-point exceptions are signalling: IEEE_UNDERFLOW_FLAG IEEE_DENORMAL
Note: The following floating-point exceptions are signalling: IEEE_UNDERFLOW_FLAG IEEE_DENORMAL
Note: The following floating-point exceptions are signalling: IEEE_UNDERFLOW_FLAG IEEE_DENORMAL
Note: The following floating-point exceptions are signalling: IEEE_UNDERFLOW_FLAG IEEE_DENORMAL
Note: The following floating-point exceptions are signalling: IEEE_UNDERFLOW_FLAG IEEE_DENORMAL
Note: The following floating-point exceptions are signalling: IEEE_UNDERFLOW_FLAG IEEE_DENORMAL
Note: The following floating-point exceptions are signalling: IEEE_UNDERFLOW_FLAG IEEE_DENORMAL
Note: The following floating-point exceptions are signalling: IEEE_UNDERFLOW_FLAG IEEE_DENORMAL
Note: The following floating-point exceptions are signalling: IEEE_UNDERFLOW_FLAG IEEE_DENORMAL
Note: The following floating-point exceptions are signalling: IEEE_UNDERFLOW_FLAG IEEE_DENORMAL
Note: The following floating-point exceptions are signalling: IEEE_UNDERFLOW_FLAG IEEE_DENORMAL
end_date Mon Oct 31 17:12:19 GMT 2022
 
TEMPORARY          SAVED (in /mnt/lustre/a2fs-work2/work/e05/e05/bcamino/quantum_computing/test_model)
fort.34            graphene_1v_A.gui 1429     Oct 31 17:12
fort.9             graphene_1v_A.f9  1712768  Oct 31 17:12
fort.98            graphene_1v_A.f98 4477978  Oct 31 17:12
 
Disk usage:<du -m>
557	/mnt/lustre/a2fs-work2/work/e05/e05/bcamino/quantum_computing/test_model/tmp_graphene_1v_A_
</du -m>
Filesystem                                          1K-blocks          Used     Available Use% Mounted on
10.253.102.2@o2ib1:10.253.102.3@o2ib1:/cls01097 3582178503216 1808890099968 1737088954072  52% /mnt/lustre/a2fs-work2
10.253.102.2@o2ib1:10.253.102.3@o2ib1:/cls01097 3582178503216 1808890099968 1737088954072  52% /mnt/lustre/a2fs-work2
