date:                Mon Oct 31 17:16:51 GMT 2022
hostname:            nid002533
system:              Linux nid002533 4.12.14-197.78_9.1.64-cray_shasta_c #1 SMP Wed Aug 25 14:56:40 UTC 2021 (4e2a900) x86_64 x86_64 x86_64 GNU/Linux
user:                bcamino
input:               /mnt/lustre/a2fs-work2/work/e05/e05/bcamino/quantum_computing/test_model/graphene_3v_C.d12
output:              /mnt/lustre/a2fs-work2/work/e05/e05/bcamino/quantum_computing/test_model/graphene_3v_C.out
executable script:   /work/e05/e05/bcamino/runCRYSTAL/Pcry_slurm
executable:          Pcrystal
Command:             srun --hint=nomultithread --distribution=block:block Pcrystal
Slurm JobID:         
temporary directory: /mnt/lustre/a2fs-work2/work/e05/e05/bcamino/quantum_computing/test_model/tmp_graphene_3v_C_      
input data /mnt/lustre/a2fs-work2/work/e05/e05/bcamino/quantum_computing/test_model/graphene_3v_C.d12
Final
EXTERNAL
SYMMREMO
END
6 8
0 0 6 2.0 1.0
  13575.349682      0.00022245814352
  2035.2333680      0.00172327382520
  463.22562359      0.00892557153140
  131.20019598      0.03572798450200
  42.853015891      0.11076259931000
  15.584185766      0.24295627626000
0 0 2 2.0 1.0
  6.2067138508      0.41440263448000
  2.5764896527      0.23744968655000
0 0 1 0.0 1.0
  0.4941102000      1.00000000000000
0 0 1 0.0 1.0
  0.1644071000      1.00000000000000
0 2 4 2.0 1.0
  34.697232244      0.00533336578050
  7.9582622826      0.03586410909200
  2.3780826883      0.14215873329000
  0.8143320818      0.34270471845000
0 2 1 0.0 1.0
  0.5662417100      1.00000000000000
0 2 1 0.0 1.0
  0.1973545000      1.00000000000000
0 3 1 0.0 1.0
  0.5791584200      1.00000000000000
99 0
ENDBS
DFT
PBE  
ENDDFT
TOLINTEG
8 8 8 8 16
SCFDIR
SHRINK
8 16  
MAXCYCLE
200
TOLDEE
9 
ENDSCF
input data /mnt/lustre/a2fs-work2/work/e05/e05/bcamino/quantum_computing/test_model/graphene_3v_C.gui
         128 PROCESSORS WORKING

         
 *******************************************************************************
 *                                                                             *
 *                               CRYSTAL17                                     *
 *                      public : 1.0.2 - March 1st, 2018 STFC/Archer2 build    *
 *                       HTTP://WWW.CRYSTAL.UNITO.IT                           *
 *                                                                             *
 *                              MAIN AUTHORS                                   *
 *                                                                             *
 *  R. DOVESI(1,11), V.R. SAUNDERS(2), C. ROETTI(1,11), R. ORLANDO(1,11),      *
 *  C.M. ZICOVICH-WILSON(1,3), F. PASCALE(4), B. CIVALLERI(1,11),              *
 *  K. DOLL(5), N.M. HARRISON(2,6), I.J. BUSH(7), Ph. D'ARCO(8),               *
 *  M. LLUNELL(9), M. CAUSA'(10), Y. NOEL(8), L. MASCHIO(1,11), A. ERBA(1,11)  *
 *  M. RE'RAT(14), S. CASASSA(1,11)                                            *
 *                                                                             *
 *        CONTRIBUTIONS TO THE CODE HAVE ALSO BEEN GIVEN BY                    *
 *                                                                             *
 *  M. FERRABONE(1,11), M. DE LA PIERRE(1,11), M. FERRERO(1,11),               *
 *  J. BAIMA(1,11), E. ALBANESE(1,11), M.F. PEINTINGER(12), R. BAST(13),       *
 *  B. KIRTMAN(15), V. LACIVITA(1,11), R. DEMICHELIS(1,16)                     *
 *  G. BRANDEBURG(17), S. SALUSTRO(1,11), G. SANSONE(1,11)                     *
 *  M.T. RUGGIERO(18)                                                          *
 *                                                                             *
 * (1) THEORETICAL CHEMISTRY GROUP - UNIVERSITA' DI TORINO - TORINO (ITALY)    *
 * (2) COMPUTATIONAL SCIENCE & ENGINEERING DEPARTMENT - STFC DARESBURY (UK)    *
 * (3) UNIVERSIDAD AUTONOMA DEL ESTADO DE MORELOS - CUERNAVACA (MEXICO)        *
 * (4) UNIVERSITE' DE LORRAINE - NANCY (FRANCE)                                *
 * (5) UNIVERSITAET STUTTGART- STUTTGART (GERMANY)                             *
 * (6) IMPERIAL COLLEGE - LONDON (UK)                                          *
 * (7) OXFORD E-RESEARCH CENTRE - OXFORD (UK)                                  *
 * (8) UPMC - SORBONNE UNIVERSITES - PARIS (FRANCE)                            *
 * (9) UNIVERSIDAD DE BARCELONA - BARCELONA (SPAIN)                            *
 *(10) UNIVERSITA' DI NAPOLI "FEDERICO II" - NAPOLI (ITALY)                    *
 *(11) NIS - NANOSTRUCTURED INTERFACES AND SURFACES - TORINO (ITALY)           *
 *(12) MPI FUER CHEMISCHE ENERGIEKONVERSION - MUELHEIM AN DER RUHR (GERMANY)   *
 *(13) UNIVERSITY OF TROMSO - TROMSO (NORWAY)                                  *
 *(14) UNIVERSITE' DE PAU ET DES PAYS DE L'ADOUR - PAU (FRANCE)                *
 *(15) UNIVERSITY OF CALIFORNIA SANTA BARBARA - SANTA BARBARA (USA)            *
 *(16) CURTIN UNIVERSITY - PERTH (AUSTRALIA)                                   *
 *(17) UNIVERSITY COLLEGE LONDON - LONDON (UK)                                 *
 *(18) CAMBRIDGE UNIVERSITY - CAMBRIDGE (UK)                                   *
 *                                                                             *
 *******************************************************************************
 EEEEEEEEEE STARTING  DATE 31 10 2022 TIME 17:16:54.6
 Final                                                                           

 GEOMETRY INPUT FROM EXTERNAL FILE (FORTRAN UNIT 34)
 3D - CRYSTAL 

 *******************************************************************************
 LATTICE PARAMETERS  (ANGSTROMS AND DEGREES) - PRIMITIVE CELL
       A          B          C        ALPHA      BETA     GAMMA        VOLUME
    7.40317    7.40317    8.68504    90.00000  90.00000 120.00000    412.228566
 INFORMATION **** CHKGRP **** SPGR WITH NO INVERSION

 NUMBER OF IRREDUCIBLE ATOMS IN THE CELL:   15

 CARTESIAN COORDINATES (ANGSTROM) - IRREDUCIBLE ATOMS AND SYMMETRY RELATED

 AT.IRR.  AT  AT.N.          X                   Y                   Z
     1     1     6    3.701586212049E+00  4.986594190562E+00  2.605511400000E+00
     2     2     6    2.467724141366E+00 -1.424741197304E+00  2.605511400000E+00
     3     3     6    3.701586212049E+00  7.123705986520E-01  2.605511400000E+00
     4     4     6    4.935448282733E+00  2.849482394607E+00  2.605511400000E+00
     5     5     6    3.701586212049E+00 -3.561852993259E+00  2.605511400000E+00
     6     6     6    4.935448282733E+00 -1.424741197304E+00  2.605511400000E+00
     7     7     6    6.169310353416E+00  7.123705986520E-01  2.605511400000E+00
     8     8     6    1.233862070683E+00 -7.123705986520E-01  2.605511400000E+00
     9     9     6    2.467724141366E+00  1.424741197304E+00  2.605511400000E+00
    10    10     6    3.701586212049E+00  3.561852993259E+00  2.605511400000E+00
    11    11     6    2.467724141366E+00 -2.849482394607E+00  2.605511400000E+00
    12    12     6    3.701586212049E+00 -7.123705986520E-01  2.605511400000E+00
    13    13     6    4.935448282733E+00  1.424741197304E+00  2.605511400000E+00
    14    14     6    4.935448282733E+00 -2.849482394607E+00  2.605511400000E+00
    15    15     6    6.169310353416E+00 -7.123705986520E-01  2.605511400000E+00

 SPACE  GROUP  N.                     :    1
 NUMBER OF SYMMETRY OPERATORS         :    1
 *******************************************************************************
 LATTICE PARAMETERS (ANGSTROMS AND DEGREES) - BOHR = 0.5291772083 ANGSTROM
 PRIMITIVE CELL - CENTRING CODE 1/0 VOLUME=   412.228566 - DENSITY  0.725 g/cm^3
         A              B              C           ALPHA      BETA       GAMMA 
     7.40317242     7.40317242     8.68503800    90.000000  90.000000 120.000000
 *******************************************************************************
 ATOMS IN THE ASYMMETRIC UNIT   15 - ATOMS IN THE UNIT CELL:   15
     ATOM                 X/A                 Y/B                 Z/C    
 *******************************************************************************
      1 T   6 C     1.111111111111E-01 -1.111111111111E-01  3.000000000000E-01
      2 T   6 C     4.444444444445E-01  2.222222222222E-01  3.000000000000E-01
      3 T   6 C     4.444444444444E-01 -4.444444444444E-01  3.000000000000E-01
      4 T   6 C     4.444444444446E-01 -1.111111111110E-01  3.000000000000E-01
      5 T   6 C    -2.222222222222E-01  2.222222222222E-01  3.000000000000E-01
      6 T   6 C    -2.222222222221E-01 -4.444444444443E-01  3.000000000000E-01
      7 T   6 C    -2.222222222221E-01 -1.111111111110E-01  3.000000000000E-01
      8 T   6 C     2.222222222222E-01  1.111111111111E-01  3.000000000000E-01
      9 T   6 C     2.222222222222E-01  4.444444444445E-01  3.000000000000E-01
     10 T   6 C     2.222222222222E-01 -2.222222222222E-01  3.000000000000E-01
     11 T   6 C    -4.444444444445E-01  1.111111111111E-01  3.000000000000E-01
     12 T   6 C    -4.444444444444E-01  4.444444444444E-01  3.000000000000E-01
     13 T   6 C    -4.444444444443E-01 -2.222222222221E-01  3.000000000000E-01
     14 T   6 C    -1.111111111110E-01  4.444444444446E-01  3.000000000000E-01
     15 T   6 C    -1.111111111110E-01 -2.222222222221E-01  3.000000000000E-01

 T = ATOM BELONGING TO THE ASYMMETRIC UNIT
 *******************************************************************************
 * GEOMETRY EDITING - INPUT COORDINATES ARE GIVEN IN ANGSTROM         
 *******************************************************************************

 USE OF SYMMETRY WILL BE SUBSEQUENTLY SUSPENDED

 GCALCO - MAX INDICES DIRECT LATTICE VECTOR    16    16    12
 NO.OF VECTORS CREATED 6999 STARS  379 RMAX   166.99060 BOHR

 GEOMETRY FOR WAVE FUNCTION - DIMENSIONALITY OF THE SYSTEM    3
 (NON PERIODIC DIRECTION: LATTICE PARAMETER FORMALLY SET TO 500)
 *******************************************************************************
 LATTICE PARAMETERS (ANGSTROMS AND DEGREES) - BOHR = 0.5291772083 ANGSTROM
 PRIMITIVE CELL - CENTRING CODE 1/0 VOLUME=   412.228566 - DENSITY  0.725 g/cm^3
         A              B              C           ALPHA      BETA       GAMMA 
     7.40317242     7.40317242     8.68503800    90.000000  90.000000 120.000000
 *******************************************************************************
 ATOMS IN THE ASYMMETRIC UNIT   15 - ATOMS IN THE UNIT CELL:   15
     ATOM                 X/A                 Y/B                 Z/C    
 *******************************************************************************
      1 T   6 C     1.111111111111E-01 -1.111111111111E-01  3.000000000000E-01
      2 T   6 C     4.444444444445E-01  2.222222222222E-01  3.000000000000E-01
      3 T   6 C     4.444444444444E-01 -4.444444444444E-01  3.000000000000E-01
      4 T   6 C     4.444444444446E-01 -1.111111111110E-01  3.000000000000E-01
      5 T   6 C    -2.222222222222E-01  2.222222222222E-01  3.000000000000E-01
      6 T   6 C    -2.222222222221E-01 -4.444444444443E-01  3.000000000000E-01
      7 T   6 C    -2.222222222221E-01 -1.111111111110E-01  3.000000000000E-01
      8 T   6 C     2.222222222222E-01  1.111111111111E-01  3.000000000000E-01
      9 T   6 C     2.222222222222E-01  4.444444444445E-01  3.000000000000E-01
     10 T   6 C     2.222222222222E-01 -2.222222222222E-01  3.000000000000E-01
     11 T   6 C    -4.444444444445E-01  1.111111111111E-01  3.000000000000E-01
     12 T   6 C    -4.444444444444E-01  4.444444444444E-01  3.000000000000E-01
     13 T   6 C    -4.444444444443E-01 -2.222222222221E-01  3.000000000000E-01
     14 T   6 C    -1.111111111110E-01  4.444444444446E-01  3.000000000000E-01
     15 T   6 C    -1.111111111110E-01 -2.222222222221E-01  3.000000000000E-01

 T = ATOM BELONGING TO THE ASYMMETRIC UNIT

 ****    1 SYMMOPS - TRANSLATORS IN FRACTIONAL UNITS
 **** MATRICES AND TRANSLATORS IN THE CRYSTALLOGRAPHIC REFERENCE FRAME
   V INV                    ROTATION MATRICES                   TRANSLATORS
   1   1  1.00  0.00  0.00  0.00  1.00  0.00  0.00  0.00  1.00  0.00  0.00  0.00

 DIRECT LATTICE VECTORS CARTESIAN COMPONENTS (ANGSTROM)
          X                    Y                    Z
   0.370158621205E+01  -0.641133538787E+01   0.000000000000E+00
   0.370158621205E+01   0.641133538787E+01   0.000000000000E+00
   0.000000000000E+00   0.000000000000E+00   0.868503800000E+01


 CARTESIAN COORDINATES - PRIMITIVE CELL
 *******************************************************************************
 *      ATOM          X(ANGSTROM)         Y(ANGSTROM)         Z(ANGSTROM)
 *******************************************************************************
    1     6 C     3.701586212049E+00  4.986594190562E+00  2.605511400000E+00
    2     6 C     2.467724141366E+00 -1.424741197304E+00  2.605511400000E+00
    3     6 C     3.701586212049E+00  7.123705986520E-01  2.605511400000E+00
    4     6 C     4.935448282733E+00  2.849482394607E+00  2.605511400000E+00
    5     6 C     3.701586212049E+00 -3.561852993259E+00  2.605511400000E+00
    6     6 C     4.935448282733E+00 -1.424741197304E+00  2.605511400000E+00
    7     6 C     6.169310353416E+00  7.123705986520E-01  2.605511400000E+00
    8     6 C     1.233862070683E+00 -7.123705986520E-01  2.605511400000E+00
    9     6 C     2.467724141366E+00  1.424741197304E+00  2.605511400000E+00
   10     6 C     3.701586212049E+00  3.561852993259E+00  2.605511400000E+00
   11     6 C     2.467724141366E+00 -2.849482394607E+00  2.605511400000E+00
   12     6 C     3.701586212049E+00 -7.123705986520E-01  2.605511400000E+00
   13     6 C     4.935448282733E+00  1.424741197304E+00  2.605511400000E+00
   14     6 C     4.935448282733E+00 -2.849482394607E+00  2.605511400000E+00
   15     6 C     6.169310353416E+00 -7.123705986520E-01  2.605511400000E+00

 *******************************************************************************
 LOCAL ATOMIC FUNCTIONS BASIS SET
 *******************************************************************************
   ATOM   X(AU)   Y(AU)   Z(AU)  N. TYPE  EXPONENT  S COEF   P COEF   D/F/G COEF
 *******************************************************************************
   1 C    6.995   9.423   4.924
                                  1 S  
                                         1.358E+04 2.225E-04 0.000E+00 0.000E+00
                                         2.035E+03 1.723E-03 0.000E+00 0.000E+00
                                         4.632E+02 8.926E-03 0.000E+00 0.000E+00
                                         1.312E+02 3.573E-02 0.000E+00 0.000E+00
                                         4.285E+01 1.108E-01 0.000E+00 0.000E+00
                                         1.558E+01 2.430E-01 0.000E+00 0.000E+00
                                  2 S  
                                         6.207E+00 4.144E-01 0.000E+00 0.000E+00
                                         2.576E+00 2.374E-01 0.000E+00 0.000E+00
                                  3 S  
                                         4.941E-01 1.000E+00 0.000E+00 0.000E+00
                                  4 S  
                                         1.644E-01 1.000E+00 0.000E+00 0.000E+00
                           5-     7 P  
                                         3.470E+01 0.000E+00 5.333E-03 0.000E+00
                                         7.958E+00 0.000E+00 3.586E-02 0.000E+00
                                         2.378E+00 0.000E+00 1.422E-01 0.000E+00
                                         8.143E-01 0.000E+00 3.427E-01 0.000E+00
                           8-    10 P  
                                         5.662E-01 0.000E+00 1.000E+00 0.000E+00
                          11-    13 P  
                                         1.974E-01 0.000E+00 1.000E+00 0.000E+00
                          14-    18 D  
                                         5.792E-01 0.000E+00 0.000E+00 1.000E+00
   2 C    4.663  -2.692   4.924
   3 C    6.995   1.346   4.924
   4 C    9.327   5.385   4.924
   5 C    6.995  -6.731   4.924
   6 C    9.327  -2.692   4.924
   7 C   11.658   1.346   4.924
   8 C    2.332  -1.346   4.924
   9 C    4.663   2.692   4.924
  10 C    6.995   6.731   4.924
  11 C    4.663  -5.385   4.924
  12 C    6.995  -1.346   4.924
  13 C    9.327   2.692   4.924
  14 C    9.327  -5.385   4.924
  15 C   11.658  -1.346   4.924
 INFORMATION **** SET_MPP **** PCRYSTAL CALCULATION
 INFORMATION **** READM2 **** NEW DEFAULT: FOCK/KS MATRIX MIXING SET TO 30 %
 INFORMATION **** READM2 **** NEW DEFAULT: FULL DIRECT SCF MODE
 INFORMATION **** READM2 **** NEW DEFAULT: COULOMB BIPOLAR BUFFER SET TO 32 Mb
 INFORMATION **** READM2 **** NEW DEFAULT: EXCHANGE BIPOLAR BUFFER SET TO 32 Mb

 *******************************************************************************
 NEW DEFAULT: DFT INTEGRATION GRID INCREASED TO XLGRID
 NEW DEFAULT: DIIS ACCELERATOR ACTIVE
 USE KEYWORD NODIIS TO TURN IT OFF
 *******************************************************************************

 INFORMATION **** TOLINTEG **** COULOMB AND EXCHANGE SERIES TOLERANCES MODIFIED
 INFORMATION **** READM2 **** FULL DIRECT SCF (MONO AND BIEL INT) SELECTED
 INFORMATION **** MAXCYCLE **** MAX NUMBER OF SCF CYCLES SET TO         200
 INFORMATION **** TOLDEE **** SCF TOL ON TOTAL ENERGY SET TO           9
 *******************************************************************************
 N. OF ATOMS PER CELL        15  COULOMB OVERLAP TOL         (T1) 10**   -8
 NUMBER OF SHELLS           120  COULOMB PENETRATION TOL     (T2) 10**   -8
 NUMBER OF AO               270  EXCHANGE OVERLAP TOL        (T3) 10**   20
 N. OF ELECTRONS PER CELL    90  EXCHANGE PSEUDO OVP (F(G))  (T4) 10**   20
 CORE ELECTRONS PER CELL     30  EXCHANGE PSEUDO OVP (P(G))  (T5) 10**   20
 N. OF SYMMETRY OPERATORS     1  POLE ORDER IN MONO ZONE                  4
 *******************************************************************************
 TYPE OF CALCULATION :  RESTRICTED CLOSED SHELL
 KOHN-SHAM HAMILTONIAN

 (EXCHANGE)[CORRELATION] FUNCTIONAL:(PERDEW-BURKE-ERNZERHOF)[PERDEW-BURKE-ERNZERHOF]


 CAPPA:IS1  8;IS2  8;IS3  8; K PTS MONK NET 260; SYMMOPS:K SPACE   2;G SPACE   1

 *******************************************************************************
 MAX NUMBER OF SCF CYCLES     200  CONVERGENCE ON DELTAP        10**-19
 WEIGHT OF F(I) IN F(I+1)      30% CONVERGENCE ON ENERGY        10**- 9
 SHRINK. FACT.(MONKH.)    8  8  8  NUMBER OF K POINTS IN THE IBZ    260
 SHRINKING FACTOR(GILAT NET)   16  NUMBER OF K POINTS(GILAT NET)   2052
 *******************************************************************************
 *** K POINTS COORDINATES (OBLIQUE COORDINATES IN UNITS OF IS =  8)
   1-R(  0  0  0)   2-C(  1  0  0)   3-C(  2  0  0)   4-C(  3  0  0)
   5-R(  4  0  0)   6-C(  0  1  0)   7-C(  1  1  0)   8-C(  2  1  0)
   9-C(  3  1  0)  10-C(  4  1  0)  11-C(  5  1  0)  12-C(  6  1  0)
  13-C(  7  1  0)  14-C(  0  2  0)  15-C(  1  2  0)  16-C(  2  2  0)
  17-C(  3  2  0)  18-C(  4  2  0)  19-C(  5  2  0)  20-C(  6  2  0)
  21-C(  7  2  0)  22-C(  0  3  0)  23-C(  1  3  0)  24-C(  2  3  0)
  25-C(  3  3  0)  26-C(  4  3  0)  27-C(  5  3  0)  28-C(  6  3  0)
  29-C(  7  3  0)  30-R(  0  4  0)  31-C(  1  4  0)  32-C(  2  4  0)
  33-C(  3  4  0)  34-R(  4  4  0)  35-C(  0  0  1)  36-C(  1  0  1)
  37-C(  2  0  1)  38-C(  3  0  1)  39-C(  4  0  1)  40-C(  5  0  1)
  41-C(  6  0  1)  42-C(  7  0  1)  43-C(  0  1  1)  44-C(  1  1  1)
  45-C(  2  1  1)  46-C(  3  1  1)  47-C(  4  1  1)  48-C(  5  1  1)
  49-C(  6  1  1)  50-C(  7  1  1)  51-C(  0  2  1)  52-C(  1  2  1)
  53-C(  2  2  1)  54-C(  3  2  1)  55-C(  4  2  1)  56-C(  5  2  1)
  57-C(  6  2  1)  58-C(  7  2  1)  59-C(  0  3  1)  60-C(  1  3  1)
  61-C(  2  3  1)  62-C(  3  3  1)  63-C(  4  3  1)  64-C(  5  3  1)
  65-C(  6  3  1)  66-C(  7  3  1)  67-C(  0  4  1)  68-C(  1  4  1)
  69-C(  2  4  1)  70-C(  3  4  1)  71-C(  4  4  1)  72-C(  5  4  1)
  73-C(  6  4  1)  74-C(  7  4  1)  75-C(  0  5  1)  76-C(  1  5  1)
  77-C(  2  5  1)  78-C(  3  5  1)  79-C(  4  5  1)  80-C(  5  5  1)
  81-C(  6  5  1)  82-C(  7  5  1)  83-C(  0  6  1)  84-C(  1  6  1)
  85-C(  2  6  1)  86-C(  3  6  1)  87-C(  4  6  1)  88-C(  5  6  1)
  89-C(  6  6  1)  90-C(  7  6  1)  91-C(  0  7  1)  92-C(  1  7  1)
  93-C(  2  7  1)  94-C(  3  7  1)  95-C(  4  7  1)  96-C(  5  7  1)
  97-C(  6  7  1)  98-C(  7  7  1)  99-C(  0  0  2) 100-C(  1  0  2)
 101-C(  2  0  2) 102-C(  3  0  2) 103-C(  4  0  2) 104-C(  5  0  2)
 105-C(  6  0  2) 106-C(  7  0  2) 107-C(  0  1  2) 108-C(  1  1  2)
 109-C(  2  1  2) 110-C(  3  1  2) 111-C(  4  1  2) 112-C(  5  1  2)
 113-C(  6  1  2) 114-C(  7  1  2) 115-C(  0  2  2) 116-C(  1  2  2)
 117-C(  2  2  2) 118-C(  3  2  2) 119-C(  4  2  2) 120-C(  5  2  2)
 121-C(  6  2  2) 122-C(  7  2  2) 123-C(  0  3  2) 124-C(  1  3  2)
 125-C(  2  3  2) 126-C(  3  3  2) 127-C(  4  3  2) 128-C(  5  3  2)
 129-C(  6  3  2) 130-C(  7  3  2) 131-C(  0  4  2) 132-C(  1  4  2)
 133-C(  2  4  2) 134-C(  3  4  2) 135-C(  4  4  2) 136-C(  5  4  2)
 137-C(  6  4  2) 138-C(  7  4  2) 139-C(  0  5  2) 140-C(  1  5  2)
 141-C(  2  5  2) 142-C(  3  5  2) 143-C(  4  5  2) 144-C(  5  5  2)
 145-C(  6  5  2) 146-C(  7  5  2) 147-C(  0  6  2) 148-C(  1  6  2)
 149-C(  2  6  2) 150-C(  3  6  2) 151-C(  4  6  2) 152-C(  5  6  2)
 153-C(  6  6  2) 154-C(  7  6  2) 155-C(  0  7  2) 156-C(  1  7  2)
 157-C(  2  7  2) 158-C(  3  7  2) 159-C(  4  7  2) 160-C(  5  7  2)
 161-C(  6  7  2) 162-C(  7  7  2) 163-C(  0  0  3) 164-C(  1  0  3)
 165-C(  2  0  3) 166-C(  3  0  3) 167-C(  4  0  3) 168-C(  5  0  3)
 169-C(  6  0  3) 170-C(  7  0  3) 171-C(  0  1  3) 172-C(  1  1  3)
 173-C(  2  1  3) 174-C(  3  1  3) 175-C(  4  1  3) 176-C(  5  1  3)
 177-C(  6  1  3) 178-C(  7  1  3) 179-C(  0  2  3) 180-C(  1  2  3)
 181-C(  2  2  3) 182-C(  3  2  3) 183-C(  4  2  3) 184-C(  5  2  3)
 185-C(  6  2  3) 186-C(  7  2  3) 187-C(  0  3  3) 188-C(  1  3  3)
 189-C(  2  3  3) 190-C(  3  3  3) 191-C(  4  3  3) 192-C(  5  3  3)
 193-C(  6  3  3) 194-C(  7  3  3) 195-C(  0  4  3) 196-C(  1  4  3)
 197-C(  2  4  3) 198-C(  3  4  3) 199-C(  4  4  3) 200-C(  5  4  3)
 201-C(  6  4  3) 202-C(  7  4  3) 203-C(  0  5  3) 204-C(  1  5  3)
 205-C(  2  5  3) 206-C(  3  5  3) 207-C(  4  5  3) 208-C(  5  5  3)
 209-C(  6  5  3) 210-C(  7  5  3) 211-C(  0  6  3) 212-C(  1  6  3)
 213-C(  2  6  3) 214-C(  3  6  3) 215-C(  4  6  3) 216-C(  5  6  3)
 217-C(  6  6  3) 218-C(  7  6  3) 219-C(  0  7  3) 220-C(  1  7  3)
 221-C(  2  7  3) 222-C(  3  7  3) 223-C(  4  7  3) 224-C(  5  7  3)
 225-C(  6  7  3) 226-C(  7  7  3) 227-R(  0  0  4) 228-C(  1  0  4)
 229-C(  2  0  4) 230-C(  3  0  4) 231-R(  4  0  4) 232-C(  0  1  4)
 233-C(  1  1  4) 234-C(  2  1  4) 235-C(  3  1  4) 236-C(  4  1  4)
 237-C(  5  1  4) 238-C(  6  1  4) 239-C(  7  1  4) 240-C(  0  2  4)
 241-C(  1  2  4) 242-C(  2  2  4) 243-C(  3  2  4) 244-C(  4  2  4)
 245-C(  5  2  4) 246-C(  6  2  4) 247-C(  7  2  4) 248-C(  0  3  4)
 249-C(  1  3  4) 250-C(  2  3  4) 251-C(  3  3  4) 252-C(  4  3  4)
 253-C(  5  3  4) 254-C(  6  3  4) 255-C(  7  3  4) 256-R(  0  4  4)
 257-C(  1  4  4) 258-C(  2  4  4) 259-C(  3  4  4) 260-R(  4  4  4)

 DIRECT LATTICE VECTORS COMPON. (A.U.)     RECIP. LATTICE VECTORS COMPON. (A.U.) 
        X            Y            Z              X            Y            Z
    6.9949842  -12.1156680    0.0000000      0.4491208   -0.2593000    0.0000000
    6.9949842   12.1156680    0.0000000      0.4491208    0.2593000   -0.0000000
    0.0000000    0.0000000   16.4123433     -0.0000000    0.0000000    0.3828329

 DISK SPACE FOR EIGENVECTORS (FTN 10)    37324800 REALS

 SYMMETRY ADAPTION OF THE BLOCH FUNCTIONS DISABLED
 TTTTTTTTTTTTTTTTTTTTTTTTTTTTTT gordsh1     TELAPSE        2.78 TCPU        1.01

 MATRIX SIZE: P(G)  110496, F(G)   55428, P(G) IRR   55713, F(G) IRR   55713
 MAX G-VECTOR INDEX FOR 1- AND 2-ELECTRON INTEGRALS  27

 TTTTTTTTTTTTTTTTTTTTTTTTTTTTTT INPUT       TELAPSE        2.81 TCPU        1.04

 NEIGHBORS OF THE NON-EQUIVALENT ATOMS

 N = NUMBER OF NEIGHBORS AT DISTANCE R
    ATOM  N     R/ANG      R/AU   NEIGHBORS (ATOM LABELS AND CELL INDICES)
   1 C    3     1.4247     2.6924    8 C    0 1 0   10 C    0 0 0   15 C   -1 0 0
   1 C    4     2.4677     4.6633    2 C    0 1 0    4 C    0 0 0    6 C   -1 0 0
                                     7 C   -1 0 0
   1 C    2     2.8495     5.3847   11 C    0 1 0   14 C   -1 0 0
   1 C    6     3.7695     7.1233    9 C    0 0 0    9 C    0 1 0   12 C   -1 0 0
                                    12 C    0 1 0   13 C    0 0 0   13 C   -1 0 0
   1 C    6     4.2742     8.0771    3 C    0 0 0    3 C   -1 0 0    3 C    0 1 0
                                     5 C   -1 0 0    5 C    0 1 0    5 C   -1 1 0
   1 C    4     4.9354     9.3266    2 C   -1 0 0    4 C   -1 0 0    6 C    0 1 0
                                     7 C    0 0 0

   2 C    3     1.4247     2.6924    8 C    0 0 0   11 C    0 0 0   12 C    0 0 0
   2 C    5     2.4677     4.6633    1 C    0-1 0    3 C    0 0 0    4 C    0-1 0
                                     5 C    0 0 0    6 C    0 0 0
   2 C    3     2.8495     5.3847    9 C    0 0 0   10 C    0-1 0   14 C    0 0 0
   2 C    4     3.7695     7.1233   13 C    0 0 0   13 C    0-1 0   15 C    0 0 0
                                    15 C   -1-1 0
   2 C    3     4.2742     8.0771    7 C    0 0 0    7 C   -1-1 0    7 C    0-1 0
   2 C    5     4.9354     9.3266    1 C    1 0 0    3 C    0-1 0    4 C    0 0 0
                                     5 C   -1 0 0    6 C   -1-1 0

   3 C    3     1.4247     2.6924    9 C    0 0 0   12 C    0 0 0   13 C    0 0 0
   3 C    4     2.4677     4.6633    2 C    0 0 0    4 C    0 0 0    6 C    0 0 0
                                     7 C    0 0 0
   3 C    3     2.8495     5.3847    8 C    0 0 0   10 C    0 0 0   15 C    0 0 0
   3 C    4     3.7695     7.1233   11 C    0 0 0   11 C    0 1 0   14 C    0 0 0
                                    14 C   -1 0 0
   3 C    6     4.2742     8.0771    1 C    0 0 0    1 C    1 0 0    1 C    0-1 0
                                     5 C    0 0 0    5 C   -1 0 0    5 C    0 1 0
   3 C    4     4.9354     9.3266    2 C    0 1 0    4 C    0-1 0    6 C   -1 0 0
                                     7 C   -1-1 0

   4 C    3     1.4247     2.6924   10 C    0 0 0   11 C    0 1 0   13 C    0 0 0
   4 C    5     2.4677     4.6633    1 C    0 0 0    2 C    0 1 0    3 C    0 0 0
                                     5 C    0 1 0    7 C    0 0 0
   4 C    2     2.8495     5.3847    8 C    0 1 0    9 C    0 0 0
   4 C    6     3.7695     7.1233   12 C    0 0 0   12 C    0 1 0   14 C   -1 0 0
                                    14 C    0 1 0   15 C    0 0 0   15 C   -1 0 0
   4 C    3     4.2742     8.0771    6 C    0 0 0    6 C   -1 0 0    6 C    0 1 0
   4 C    5     4.9354     9.3266    1 C    1 0 0    2 C    0 0 0    3 C    0 1 0
                                     5 C   -1 0 0    7 C   -1 0 0

   5 C    2     1.4247     2.6924   11 C    0 0 0   14 C    0 0 0
   5 C    4     2.4677     4.6633    2 C    0 0 0    4 C    0-1 0    6 C    0 0 0
                                     7 C    0-1 0
   5 C    3     2.8495     5.3847    9 C    1 0 0   12 C    0 0 0   13 C    0-1 0
   5 C    6     3.7695     7.1233    8 C    0 0 0    8 C    1 0 0   10 C    1 0 0
                                    10 C    0-1 0   15 C    0 0 0   15 C    0-1 0
   5 C    6     4.2742     8.0771    1 C    1 0 0    1 C    0-1 0    1 C    1-1 0
                                     3 C    0 0 0    3 C    1 0 0    3 C    0-1 0
   5 C    4     4.9354     9.3266    2 C    1 0 0    4 C    1 0 0    6 C    0-1 0
                                     7 C    0 0 0

   6 C    3     1.4247     2.6924   12 C    0 0 0   14 C    0 0 0   15 C    0 0 0
   6 C    5     2.4677     4.6633    1 C    1 0 0    2 C    0 0 0    3 C    0 0 0
                                     5 C    0 0 0    7 C    0 0 0
   6 C    3     2.8495     5.3847   10 C    1 0 0   11 C    0 0 0   13 C    0 0 0
   6 C    4     3.7695     7.1233    8 C    0 0 0    8 C    1 1 0    9 C    0 0 0
                                     9 C    1 0 0
   6 C    3     4.2742     8.0771    4 C    0 0 0    4 C    1 0 0    4 C    0-1 0
   6 C    5     4.9354     9.3266    1 C    0-1 0    2 C    1 1 0    3 C    1 0 0
                                     5 C    0 1 0    7 C    0-1 0

   7 C    2     1.4247     2.6924   13 C    0 0 0   15 C    0 0 0
   7 C    5     2.4677     4.6633    1 C    1 0 0    3 C    0 0 0    4 C    0 0 0
                                     5 C    0 1 0    6 C    0 0 0
   7 C    3     2.8495     5.3847    8 C    1 1 0   11 C    0 1 0   12 C    0 0 0
   7 C    6     3.7695     7.1233    9 C    0 0 0    9 C    1 1 0   10 C    0 0 0
                                    10 C    1 0 0   14 C    0 0 0   14 C    0 1 0
   7 C    3     4.2742     8.0771    2 C    0 0 0    2 C    1 1 0    2 C    0 1 0
   7 C    5     4.9354     9.3266    1 C    0 0 0    3 C    1 1 0    4 C    1 0 0
                                     5 C    0 0 0    6 C    0 1 0

   8 C    2     1.4247     2.6924    1 C    0-1 0    2 C    0 0 0
   8 C    5     2.4677     4.6633    9 C    0 0 0   10 C    0-1 0   11 C    0 0 0
                                    12 C    0 0 0   15 C   -1-1 0
   8 C    3     2.8495     5.3847    3 C    0 0 0    4 C    0-1 0    7 C   -1-1 0
   8 C    4     3.7695     7.1233    5 C    0 0 0    5 C   -1 0 0    6 C    0 0 0
                                     6 C   -1-1 0
   8 C    6     4.2742     8.0771   13 C    0 0 0   13 C   -1-1 0   13 C    0-1 0
                                    14 C    0 0 0   14 C   -1-1 0   14 C   -1 0 0
   8 C    5     4.9354     9.3266    9 C    0-1 0   10 C    0 0 0   11 C   -1 0 0
                                    12 C   -1-1 0   15 C    0 0 0

   9 C    1     1.4247     2.6924    3 C    0 0 0
   9 C    5     2.4677     4.6633    8 C    0 0 0   10 C    0 0 0   12 C    0 0 0
                                    13 C    0 0 0   14 C   -1 0 0
   9 C    3     2.8495     5.3847    2 C    0 0 0    4 C    0 0 0    5 C   -1 0 0
   9 C    6     3.7695     7.1233    1 C    0 0 0    1 C    0-1 0    6 C    0 0 0
                                     6 C   -1 0 0    7 C    0 0 0    7 C   -1-1 0
   9 C    6     4.2742     8.0771   11 C    0 0 0   11 C   -1 0 0   11 C    0 1 0
                                    15 C    0 0 0   15 C   -1-1 0   15 C   -1 0 0
   9 C    5     4.9354     9.3266    8 C    0 1 0   10 C    0-1 0   12 C   -1 0 0
                                    13 C   -1-1 0   14 C    0 0 0

  10 C    2     1.4247     2.6924    1 C    0 0 0    4 C    0 0 0
  10 C    6     2.4677     4.6633    8 C    0 1 0    9 C    0 0 0   11 C    0 1 0
                                    13 C    0 0 0   14 C   -1 0 0   15 C   -1 0 0
  10 C    3     2.8495     5.3847    2 C    0 1 0    3 C    0 0 0    6 C   -1 0 0
  10 C    4     3.7695     7.1233    5 C   -1 0 0    5 C    0 1 0    7 C    0 0 0
                                     7 C   -1 0 0
  10 C    3     4.2742     8.0771   12 C    0 0 0   12 C   -1 0 0   12 C    0 1 0
  10 C    6     4.9354     9.3266    8 C    0 0 0    9 C    0 1 0   11 C   -1 0 0
                                    13 C   -1 0 0   14 C    0 1 0   15 C    0 0 0

  11 C    3     1.4247     2.6924    2 C    0 0 0    4 C    0-1 0    5 C    0 0 0
  11 C    5     2.4677     4.6633    8 C    0 0 0   10 C    0-1 0   12 C    0 0 0
                                    13 C    0-1 0   14 C    0 0 0
  11 C    3     2.8495     5.3847    1 C    0-1 0    6 C    0 0 0    7 C    0-1 0
  11 C    2     3.7695     7.1233    3 C    0 0 0    3 C    0-1 0
  11 C    6     4.2742     8.0771    9 C    0 0 0    9 C    1 0 0    9 C    0-1 0
                                    15 C    0 0 0   15 C   -1-1 0   15 C    0-1 0
  11 C    5     4.9354     9.3266    8 C    1 0 0   10 C    1 0 0   12 C    0-1 0
                                    13 C    0 0 0   14 C   -1-1 0

  12 C    3     1.4247     2.6924    2 C    0 0 0    3 C    0 0 0    6 C    0 0 0
  12 C    6     2.4677     4.6633    8 C    0 0 0    9 C    0 0 0   11 C    0 0 0
                                    13 C    0 0 0   14 C    0 0 0   15 C    0 0 0
  12 C    2     2.8495     5.3847    5 C    0 0 0    7 C    0 0 0
  12 C    4     3.7695     7.1233    1 C    1 0 0    1 C    0-1 0    4 C    0 0 0
                                     4 C    0-1 0
  12 C    3     4.2742     8.0771   10 C    0 0 0   10 C    1 0 0   10 C    0-1 0
  12 C    6     4.9354     9.3266    8 C    1 1 0    9 C    1 0 0   11 C    0 1 0
                                    13 C    0-1 0   14 C   -1 0 0   15 C   -1-1 0

  13 C    3     1.4247     2.6924    3 C    0 0 0    4 C    0 0 0    7 C    0 0 0
  13 C    5     2.4677     4.6633    9 C    0 0 0   10 C    0 0 0   11 C    0 1 0
                                    12 C    0 0 0   15 C    0 0 0
  13 C    2     2.8495     5.3847    5 C    0 1 0    6 C    0 0 0
  13 C    4     3.7695     7.1233    1 C    0 0 0    1 C    1 0 0    2 C    0 0 0
                                     2 C    0 1 0
  13 C    6     4.2742     8.0771    8 C    0 0 0    8 C    1 1 0    8 C    0 1 0
                                    14 C    0 0 0   14 C   -1 0 0   14 C    0 1 0
  13 C    5     4.9354     9.3266    9 C    1 1 0   10 C    1 0 0   11 C    0 0 0
                                    12 C    0 1 0   15 C   -1 0 0

  14 C    2     1.4247     2.6924    5 C    0 0 0    6 C    0 0 0
  14 C    5     2.4677     4.6633    9 C    1 0 0   10 C    1 0 0   11 C    0 0 0
                                    12 C    0 0 0   15 C    0 0 0
  14 C    2     2.8495     5.3847    1 C    1 0 0    2 C    0 0 0
  14 C    6     3.7695     7.1233    3 C    0 0 0    3 C    1 0 0    4 C    1 0 0
                                     4 C    0-1 0    7 C    0 0 0    7 C    0-1 0
  14 C    6     4.2742     8.0771    8 C    0 0 0    8 C    1 1 0    8 C    1 0 0
                                    13 C    0 0 0   13 C    1 0 0   13 C    0-1 0
  14 C    5     4.9354     9.3266    9 C    0 0 0   10 C    0-1 0   11 C    1 1 0
                                    12 C    1 0 0   15 C    0-1 0

  15 C    3     1.4247     2.6924    1 C    1 0 0    6 C    0 0 0    7 C    0 0 0
  15 C    5     2.4677     4.6633    8 C    1 1 0   10 C    1 0 0   12 C    0 0 0
                                    13 C    0 0 0   14 C    0 0 0
  15 C    1     2.8495     5.3847    3 C    0 0 0
  15 C    6     3.7695     7.1233    2 C    0 0 0    2 C    1 1 0    4 C    0 0 0
                                     4 C    1 0 0    5 C    0 0 0    5 C    0 1 0
  15 C    6     4.2742     8.0771    9 C    0 0 0    9 C    1 1 0    9 C    1 0 0
                                    11 C    0 0 0   11 C    1 1 0   11 C    0 1 0
  15 C    5     4.9354     9.3266    8 C    0 0 0   10 C    0 0 0   12 C    1 1 0
                                    13 C    1 0 0   14 C    0 1 0


 SYMMETRY ALLOWED INTERNAL DEGREE(S) OF FREEDOM:  42
 TTTTTTTTTTTTTTTTTTTTTTTTTTTTTT SYMM        TELAPSE        2.81 TCPU        1.04
 TTTTTTTTTTTTTTTTTTTTTTTTTTTTTT INT_SCREEN  TELAPSE        2.82 TCPU        1.05
 INFORMATION **** EXCBUF **** EXCH. BIPO BUFFER: WORDS USED =           0

 DFT PARAMETERS

     ATOM       ELECTRONS   NET CHARGE   R(ANGSTROM)
   1   6  C       6.0000      0.0000     0.77000000

 SIZE OF GRID=     502722
 TTTTTTTTTTTTTTTTTTTTTTTTTTTTTT MAKE_GRID2  TELAPSE        3.09 TCPU        1.32
 BECKE WEIGHT FUNCTION
 RADSAFE =     2.00
 TOLERANCES - DENSITY:10**- 6; POTENTIAL:10**- 9; GRID WGT:10**-14

 RADIAL INTEGRATION  - INTERVALS (POINTS,UPPER LIMIT):            1( 75,  4.0*R)

 ANGULAR INTEGRATION - INTERVALS (ACCURACY LEVEL [N. POINTS] UPPER LIMIT):
  1(  4[  86]   0.2)  2(  8[ 194]   0.5)  3( 12[ 350]   0.9)  4( 16[ 974]   3.5)
  5( 12[ 350]9999.0)
 TTTTTTTTTTTTTTTTTTTTTTTTTTTTTT INT_CALC    TELAPSE        3.11 TCPU        1.35
 EEEEEEEEEE INT_CALC TERMINATION  DATE 31 10 2022 TIME 17:16:55.3

 *******************************************************************************
 Final                                                                           
 CRYSTAL - SCF - TYPE OF CALCULATION :  RESTRICTED CLOSED SHELL
 *******************************************************************************

 CAPPA:IS1  8;IS2  8;IS3  8; K PTS MONK NET 260; SYMMOPS:K SPACE   2;G SPACE   1

 TTTTTTTTTTTTTTTTTTTTTTTTTTTTTT SDIK        TELAPSE        3.18 TCPU        1.40

 AAAAAAAAAAAAAAAAAAAAAAAAAAAAAAAAAAAAAAAAAAAAAAAAAAAAAAAAAAAAAAAAAAAAAAAAAAAAAAA
         ATOMIC WAVEFUNCTION(S)


 NUCLEAR CHARGE  6.0  SYMMETRY SPECIES            S    P
 N. ELECTRONS    6.0  NUMBER OF PRIMITIVE GTOS   10    6
                      NUMBER OF CONTRACTED GTOS   4    3
                      NUMBER OF CLOSED SHELLS     2    0
                      OPEN SHELL OCCUPATION       0    2

  ZNUC SCFIT  TOTAL HF ENERGY   KINETIC ENERGY   VIRIAL THEOREM ACCURACY
   6.0  10   -3.768111494E+01  3.771190961E+01 -1.999183423E+00  3.4E-06

 AAAAAAAAAAAAAAAAAAAAAAAAAAAAAAAAAAAAAAAAAAAAAAAAAAAAAAAAAAAAAAAAAAAAAAAAAAAAAAA

 CHARGE NORMALIZATION FACTOR   1.00000000
 TOTAL ATOMIC CHARGES:
   6.0000000   6.0000000   6.0000000   6.0000000   6.0000000   6.0000000
   6.0000000   6.0000000   6.0000000   6.0000000   6.0000000   6.0000000
   6.0000000   6.0000000   6.0000000
 TTTTTTTTTTTTTTTTTTTTTTTTTTTTTT MOQGAD      TELAPSE        3.19 TCPU        1.41
 TTTTTTTTTTTTTTTTTTTTTTTTTTTTTT SHELLXN     TELAPSE        3.79 TCPU        2.02
 TTTTTTTTTTTTTTTTTTTTTTTTTTTTTT MONMO3      TELAPSE        3.90 TCPU        2.12
 NUMERICALLY INTEGRATED DENSITY     89.9997955594
 TTTTTTTTTTTTTTTTTTTTTTTTTTTTTT NUMDFT      TELAPSE        4.17 TCPU        2.40
 CYC   0 ETOT(AU) -5.739886473722E+02 DETOT -5.74E+02 tst  0.00E+00 PX  1.00E+00
 TTTTTTTTTTTTTTTTTTTTTTTTTTTTTT DIIS        TELAPSE        4.23 TCPU        2.45
 TTTTTTTTTTTTTTTTTTTTTTTTTTTTTT FDIK        TELAPSE        4.39 TCPU        2.61
 INSULATING STATE
 TOP OF VALENCE BANDS -    BAND     45; K   80; EIG -2.3902777E-01 AU
 TOP OF VALENCE BANDS -    BAND     45; K    1; EIG -2.6901997E-01 AU
 BOTTOM OF VIRTUAL BANDS - BAND     46; K   88; EIG -2.3483491E-01 AU
 INDIRECT ENERGY BAND GAP:   0.1141 eV
 BOTTOM OF VIRTUAL BANDS - BAND     46; K    1; EIG -2.1042253E-01 AU
 TTTTTTTTTTTTTTTTTTTTTTTTTTTTTT PDIG        TELAPSE        4.44 TCPU        2.66
 CHARGE NORMALIZATION FACTOR   1.00000000
 TOTAL ATOMIC CHARGES:
   6.1274725   6.0989827   6.1244400   6.1002323   5.9683539   6.0398762
   6.0399907   6.0837836   5.6209066   6.0286380   6.0339509   5.9516423
   6.0080668   5.7873632   5.9863004
 TTTTTTTTTTTTTTTTTTTTTTTTTTTTTT MOQGAD      TELAPSE        4.44 TCPU        2.66
 TTTTTTTTTTTTTTTTTTTTTTTTTTTTTT SHELLXN     TELAPSE        5.14 TCPU        3.36
 TTTTTTTTTTTTTTTTTTTTTTTTTTTTTT MONMO3      TELAPSE        5.26 TCPU        3.48
 NUMERICALLY INTEGRATED DENSITY     89.9998448203
 TTTTTTTTTTTTTTTTTTTTTTTTTTTTTT NUMDFT      TELAPSE        5.62 TCPU        3.84
 CYC   1 ETOT(AU) -5.704598748191E+02 DETOT  3.53E+00 tst  0.00E+00 PX  1.00E+00
 TTTTTTTTTTTTTTTTTTTTTTTTTTTTTT DIIS        TELAPSE        5.65 TCPU        3.87
 DIIS TEST: 0.82511E+00 AT SCF   CYCLE   1 - MIX   30 %
 TTTTTTTTTTTTTTTTTTTTTTTTTTTTTT FDIK        TELAPSE        5.81 TCPU        4.02
 POSSIBLY CONDUCTING STATE - EFERMI(AU) -1.9465254E-01 (RES. CHARGE  1.82E-12;IT. 12)
 TTTTTTTTTTTTTTTTTTTTTTTTTTTTTT PDIG        TELAPSE        5.91 TCPU        4.11
 CHARGE NORMALIZATION FACTOR   1.00000000
 TOTAL ATOMIC CHARGES:
   5.7149326   5.7741797   5.7591274   5.7402949   5.9863073   5.9301943
   5.6123577   5.1828311   7.7402121   5.9105689   5.8388714   6.0337777
   6.0090897   6.8429320   5.9243231
 TTTTTTTTTTTTTTTTTTTTTTTTTTTTTT MOQGAD      TELAPSE        5.91 TCPU        4.11
 TTTTTTTTTTTTTTTTTTTTTTTTTTTTTT SHELLXN     TELAPSE        6.61 TCPU        4.81
 TTTTTTTTTTTTTTTTTTTTTTTTTTTTTT MONMO3      TELAPSE        6.74 TCPU        4.94
 NUMERICALLY INTEGRATED DENSITY     89.9998132327
 TTTTTTTTTTTTTTTTTTTTTTTTTTTTTT NUMDFT      TELAPSE        6.99 TCPU        5.19
 CYC   2 ETOT(AU) -5.694969646586E+02 DETOT  9.63E-01 tst  4.02E-02 PX  3.00E-01
 TTTTTTTTTTTTTTTTTTTTTTTTTTTTTT DIIS        TELAPSE        7.00 TCPU        5.21
 DIIS TEST: 0.89802E+01 AT SCF   CYCLE   2 - DIIS ACTIVE - HISTORY:     2 CYCLES
 TTTTTTTTTTTTTTTTTTTTTTTTTTTTTT FDIK        TELAPSE        7.18 TCPU        5.38
 POSSIBLY CONDUCTING STATE - EFERMI(AU) -1.5112424E-01 (RES. CHARGE  4.60E-12;IT. 14)
 TTTTTTTTTTTTTTTTTTTTTTTTTTTTTT PDIG        TELAPSE        7.27 TCPU        5.47
 CHARGE NORMALIZATION FACTOR   1.00000000
 TOTAL ATOMIC CHARGES:
   5.9660971   5.9227488   5.8464855   5.8862380   5.8989209   5.9038805
   6.2481289   6.4491742   5.7348726   6.3623979   5.9938906   5.9790405
   5.9530817   5.8259623   6.0290805
 TTTTTTTTTTTTTTTTTTTTTTTTTTTTTT MOQGAD      TELAPSE        7.27 TCPU        5.47
 TTTTTTTTTTTTTTTTTTTTTTTTTTTTTT SHELLXN     TELAPSE        7.98 TCPU        6.17
 TTTTTTTTTTTTTTTTTTTTTTTTTTTTTT MONMO3      TELAPSE        8.10 TCPU        6.30
 NUMERICALLY INTEGRATED DENSITY     89.9998028321
 TTTTTTTTTTTTTTTTTTTTTTTTTTTTTT NUMDFT      TELAPSE        8.36 TCPU        6.56
 CYC   3 ETOT(AU) -5.704706428164E+02 DETOT -9.74E-01 tst  7.45E-02 PX  2.94E-01
 TTTTTTTTTTTTTTTTTTTTTTTTTTTTTT DIIS        TELAPSE        8.38 TCPU        6.57
 DIIS TEST: 0.82579E+00 AT SCF   CYCLE   3 - DIIS ACTIVE - HISTORY:     3 CYCLES
 TTTTTTTTTTTTTTTTTTTTTTTTTTTTTT FDIK        TELAPSE        8.56 TCPU        6.75
 POSSIBLY CONDUCTING STATE - EFERMI(AU) -1.6550572E-01 (RES. CHARGE  4.49E-10;IT. 12)
 TTTTTTTTTTTTTTTTTTTTTTTTTTTTTT PDIG        TELAPSE        8.65 TCPU        6.85
 CHARGE NORMALIZATION FACTOR   1.00000000
 TOTAL ATOMIC CHARGES:
   6.0001567   6.0618777   6.0844343   6.0803523   6.0854907   6.0555248
   5.8257725   5.6892422   6.0672050   5.7640656   6.0641452   6.0660438
   6.0673086   6.0955990   5.9927815
 TTTTTTTTTTTTTTTTTTTTTTTTTTTTTT MOQGAD      TELAPSE        8.65 TCPU        6.85
 TTTTTTTTTTTTTTTTTTTTTTTTTTTTTT SHELLXN     TELAPSE        9.36 TCPU        7.55
 TTTTTTTTTTTTTTTTTTTTTTTTTTTTTT MONMO3      TELAPSE        9.48 TCPU        7.68
 NUMERICALLY INTEGRATED DENSITY     89.9998115575
 TTTTTTTTTTTTTTTTTTTTTTTTTTTTTT NUMDFT      TELAPSE        9.86 TCPU        8.05
 CYC   4 ETOT(AU) -5.705210074194E+02 DETOT -5.04E-02 tst  1.11E-02 PX  9.51E-02
 TTTTTTTTTTTTTTTTTTTTTTTTTTTTTT DIIS        TELAPSE        9.89 TCPU        8.08
 DIIS TEST: 0.49368E+00 AT SCF   CYCLE   4 - DIIS ACTIVE - HISTORY:     4 CYCLES
 TTTTTTTTTTTTTTTTTTTTTTTTTTTTTT FDIK        TELAPSE       10.07 TCPU        8.26
 POSSIBLY CONDUCTING STATE - EFERMI(AU) -1.8335540E-01 (RES. CHARGE  4.97E-12;IT. 14)
 TTTTTTTTTTTTTTTTTTTTTTTTTTTTTT PDIG        TELAPSE       10.16 TCPU        8.35
 CHARGE NORMALIZATION FACTOR   1.00000000
 TOTAL ATOMIC CHARGES:
   6.0695688   6.0215570   6.0170637   6.0005532   5.8442318   6.0004353
   5.9187435   5.9579455   6.1950846   6.1522839   5.9673971   5.9549931
   5.9909052   5.9412885   5.9679491
 TTTTTTTTTTTTTTTTTTTTTTTTTTTTTT MOQGAD      TELAPSE       10.16 TCPU        8.35
 TTTTTTTTTTTTTTTTTTTTTTTTTTTTTT SHELLXN     TELAPSE       10.86 TCPU        9.05
 TTTTTTTTTTTTTTTTTTTTTTTTTTTTTT MONMO3      TELAPSE       10.99 TCPU        9.18
 NUMERICALLY INTEGRATED DENSITY     89.9998167995
 TTTTTTTTTTTTTTTTTTTTTTTTTTTTTT NUMDFT      TELAPSE       11.36 TCPU        9.55
 CYC   5 ETOT(AU) -5.705664201597E+02 DETOT -4.54E-02 tst  6.95E-03 PX  5.71E-02
 TTTTTTTTTTTTTTTTTTTTTTTTTTTTTT DIIS        TELAPSE       11.39 TCPU        9.58
 DIIS TEST: 0.14834E+00 AT SCF   CYCLE   5 - DIIS ACTIVE - HISTORY:     5 CYCLES
 TTTTTTTTTTTTTTTTTTTTTTTTTTTTTT FDIK        TELAPSE       11.58 TCPU        9.77
 INSULATING STATE
 TOP OF VALENCE BANDS -    BAND     45; K   29; EIG -1.8372763E-01 AU
 TOP OF VALENCE BANDS -    BAND     45; K    1; EIG -2.0746405E-01 AU
 BOTTOM OF VIRTUAL BANDS - BAND     46; K   34; EIG -1.8260201E-01 AU
 INDIRECT ENERGY BAND GAP:   0.0306 eV
 BOTTOM OF VIRTUAL BANDS - BAND     46; K    1; EIG -1.5621188E-01 AU
 TTTTTTTTTTTTTTTTTTTTTTTTTTTTTT PDIG        TELAPSE       11.63 TCPU        9.81
 CHARGE NORMALIZATION FACTOR   1.00000000
 TOTAL ATOMIC CHARGES:
   6.0210470   5.9909978   5.9801908   5.9842538   5.9894341   6.0051415
   6.0808647   5.9703582   5.9725134   5.9987742   5.9882552   5.9579740
   5.9635803   6.1209026   5.9757124
 TTTTTTTTTTTTTTTTTTTTTTTTTTTTTT MOQGAD      TELAPSE       11.63 TCPU        9.82
 TTTTTTTTTTTTTTTTTTTTTTTTTTTTTT SHELLXN     TELAPSE       12.33 TCPU       10.51
 TTTTTTTTTTTTTTTTTTTTTTTTTTTTTT MONMO3      TELAPSE       12.47 TCPU       10.65
 NUMERICALLY INTEGRATED DENSITY     89.9998189771
 TTTTTTTTTTTTTTTTTTTTTTTTTTTTTT NUMDFT      TELAPSE       12.72 TCPU       10.91
 CYC   6 ETOT(AU) -5.705765272451E+02 DETOT -1.01E-02 tst  2.06E-03 PX  3.71E-02
 TTTTTTTTTTTTTTTTTTTTTTTTTTTTTT DIIS        TELAPSE       12.74 TCPU       10.92
 DIIS TEST: 0.66535E-01 AT SCF   CYCLE   6 - DIIS ACTIVE - HISTORY:     6 CYCLES
 TTTTTTTTTTTTTTTTTTTTTTTTTTTTTT FDIK        TELAPSE       12.92 TCPU       11.10
 POSSIBLY CONDUCTING STATE - EFERMI(AU) -1.8177968E-01 (RES. CHARGE  2.20E-13;IT. 10)
 TTTTTTTTTTTTTTTTTTTTTTTTTTTTTT PDIG        TELAPSE       13.01 TCPU       11.19
 CHARGE NORMALIZATION FACTOR   1.00000000
 TOTAL ATOMIC CHARGES:
   6.0012125   5.9978576   5.9816450   5.9888029   5.9855878   5.9859356
   5.9922488   6.0108930   6.0373518   6.0480733   6.0043498   5.9984799
   6.0063437   5.9714586   5.9897597
 TTTTTTTTTTTTTTTTTTTTTTTTTTTTTT MOQGAD      TELAPSE       13.01 TCPU       11.19
 TTTTTTTTTTTTTTTTTTTTTTTTTTTTTT SHELLXN     TELAPSE       13.71 TCPU       11.89
 TTTTTTTTTTTTTTTTTTTTTTTTTTTTTT MONMO3      TELAPSE       13.84 TCPU       12.02
 NUMERICALLY INTEGRATED DENSITY     89.9998173763
 TTTTTTTTTTTTTTTTTTTTTTTTTTTTTT NUMDFT      TELAPSE       14.09 TCPU       12.27
 CYC   7 ETOT(AU) -5.705841301854E+02 DETOT -7.60E-03 tst  4.39E-04 PX  2.30E-02
 TTTTTTTTTTTTTTTTTTTTTTTTTTTTTT DIIS        TELAPSE       14.11 TCPU       12.29
 DIIS TEST: 0.62340E-02 AT SCF   CYCLE   7 - DIIS ACTIVE - HISTORY:     7 CYCLES
 TTTTTTTTTTTTTTTTTTTTTTTTTTTTTT FDIK        TELAPSE       14.30 TCPU       12.47
 POSSIBLY CONDUCTING STATE - EFERMI(AU) -1.8054176E-01 (RES. CHARGE  3.35E-10;IT. 10)
 TTTTTTTTTTTTTTTTTTTTTTTTTTTTTT PDIG        TELAPSE       14.39 TCPU       12.56
 CHARGE NORMALIZATION FACTOR   1.00000000
 TOTAL ATOMIC CHARGES:
   6.0168414   6.0006747   5.9909891   5.9953287   5.9441104   5.9974572
   5.9997053   5.9743620   5.9843196   6.0784527   6.0049653   5.9926649
   6.0080496   6.0107169   6.0013622
 TTTTTTTTTTTTTTTTTTTTTTTTTTTTTT MOQGAD      TELAPSE       14.39 TCPU       12.56
 TTTTTTTTTTTTTTTTTTTTTTTTTTTTTT SHELLXN     TELAPSE       15.09 TCPU       13.26
 TTTTTTTTTTTTTTTTTTTTTTTTTTTTTT MONMO3      TELAPSE       15.22 TCPU       13.39
 NUMERICALLY INTEGRATED DENSITY     89.9998175264
 TTTTTTTTTTTTTTTTTTTTTTTTTTTTTT NUMDFT      TELAPSE       15.47 TCPU       13.65
 CYC   8 ETOT(AU) -5.705843705683E+02 DETOT -2.40E-04 tst  7.25E-05 PX  7.08E-03
 TTTTTTTTTTTTTTTTTTTTTTTTTTTTTT DIIS        TELAPSE       15.49 TCPU       13.66
 DIIS TEST: 0.40251E-02 AT SCF   CYCLE   8 - DIIS ACTIVE - HISTORY:     8 CYCLES
 TTTTTTTTTTTTTTTTTTTTTTTTTTTTTT FDIK        TELAPSE       15.67 TCPU       13.84
 POSSIBLY CONDUCTING STATE - EFERMI(AU) -1.8031214E-01 (RES. CHARGE  3.55E-14;IT. 10)
 TTTTTTTTTTTTTTTTTTTTTTTTTTTTTT PDIG        TELAPSE       15.76 TCPU       13.93
 CHARGE NORMALIZATION FACTOR   1.00000000
 TOTAL ATOMIC CHARGES:
   6.0240731   6.0080790   5.9959215   5.9968755   5.9474498   5.9984208
   5.9954408   6.0016003   6.0106280   6.0394939   6.0032359   5.9917577
   5.9990180   5.9953524   5.9926533
 TTTTTTTTTTTTTTTTTTTTTTTTTTTTTT MOQGAD      TELAPSE       15.76 TCPU       13.93
 TTTTTTTTTTTTTTTTTTTTTTTTTTTTTT SHELLXN     TELAPSE       16.46 TCPU       14.63
 TTTTTTTTTTTTTTTTTTTTTTTTTTTTTT MONMO3      TELAPSE       16.59 TCPU       14.75
 NUMERICALLY INTEGRATED DENSITY     89.9998170836
 TTTTTTTTTTTTTTTTTTTTTTTTTTTTTT NUMDFT      TELAPSE       16.84 TCPU       15.01
 CYC   9 ETOT(AU) -5.705847279488E+02 DETOT -3.57E-04 tst  4.47E-05 PX  5.48E-03
 TTTTTTTTTTTTTTTTTTTTTTTTTTTTTT DIIS        TELAPSE       16.86 TCPU       15.02
 DIIS TEST: 0.89163E-03 AT SCF   CYCLE   9 - DIIS ACTIVE - HISTORY:     9 CYCLES
 TTTTTTTTTTTTTTTTTTTTTTTTTTTTTT FDIK        TELAPSE       17.04 TCPU       15.20
 POSSIBLY CONDUCTING STATE - EFERMI(AU) -1.8018617E-01 (RES. CHARGE  6.41E-11;IT. 10)
 TTTTTTTTTTTTTTTTTTTTTTTTTTTTTT PDIG        TELAPSE       17.13 TCPU       15.29
 CHARGE NORMALIZATION FACTOR   1.00000000
 TOTAL ATOMIC CHARGES:
   6.0248840   6.0077316   5.9962943   6.0000130   5.9611287   5.9973587
   5.9994809   5.9886936   6.0024048   6.0590695   6.0038660   5.9842665
   5.9994592   5.9868215   5.9885278
 TTTTTTTTTTTTTTTTTTTTTTTTTTTTTT MOQGAD      TELAPSE       17.13 TCPU       15.29
 TTTTTTTTTTTTTTTTTTTTTTTTTTTTTT SHELLXN     TELAPSE       17.83 TCPU       15.99
 TTTTTTTTTTTTTTTTTTTTTTTTTTTTTT MONMO3      TELAPSE       17.96 TCPU       16.12
 NUMERICALLY INTEGRATED DENSITY     89.9998171987
 TTTTTTTTTTTTTTTTTTTTTTTTTTTTTT NUMDFT      TELAPSE       18.33 TCPU       16.49
 CYC  10 ETOT(AU) -5.705848185428E+02 DETOT -9.06E-05 tst  5.67E-06 PX  2.81E-03
 TTTTTTTTTTTTTTTTTTTTTTTTTTTTTT DIIS        TELAPSE       18.37 TCPU       16.53
 DIIS TEST: 0.26883E-03 AT SCF   CYCLE  10 - DIIS ACTIVE - HISTORY:    10 CYCLES
 TTTTTTTTTTTTTTTTTTTTTTTTTTTTTT FDIK        TELAPSE       18.55 TCPU       16.71
 POSSIBLY CONDUCTING STATE - EFERMI(AU) -1.8014113E-01 (RES. CHARGE  5.01E-11;IT.  8)
 TTTTTTTTTTTTTTTTTTTTTTTTTTTTTT PDIG        TELAPSE       18.64 TCPU       16.79
 CHARGE NORMALIZATION FACTOR   1.00000000
 TOTAL ATOMIC CHARGES:
   6.0224825   6.0077008   5.9974991   5.9984612   5.9553417   5.9974483
   5.9965938   5.9965752   6.0025536   6.0580870   6.0023921   5.9895544
   6.0013568   5.9831767   5.9907767
 TTTTTTTTTTTTTTTTTTTTTTTTTTTTTT MOQGAD      TELAPSE       18.64 TCPU       16.80
 TTTTTTTTTTTTTTTTTTTTTTTTTTTTTT SHELLXN     TELAPSE       19.34 TCPU       17.50
 TTTTTTTTTTTTTTTTTTTTTTTTTTTTTT MONMO3      TELAPSE       19.47 TCPU       17.62
 NUMERICALLY INTEGRATED DENSITY     89.9998170818
 TTTTTTTTTTTTTTTTTTTTTTTTTTTTTT NUMDFT      TELAPSE       19.73 TCPU       17.88
 CYC  11 ETOT(AU) -5.705848452290E+02 DETOT -2.67E-05 tst  1.11E-06 PX  1.48E-03
 TTTTTTTTTTTTTTTTTTTTTTTTTTTTTT DIIS        TELAPSE       19.78 TCPU       17.93
 DIIS TEST: 0.14771E-04 AT SCF   CYCLE  11 - DIIS ACTIVE - HISTORY:    11 CYCLES
 TTTTTTTTTTTTTTTTTTTTTTTTTTTTTT FDIK        TELAPSE       19.95 TCPU       18.07
 POSSIBLY CONDUCTING STATE - EFERMI(AU) -1.8014286E-01 (RES. CHARGE  3.12E-10;IT.  6)
 TTTTTTTTTTTTTTTTTTTTTTTTTTTTTT PDIG        TELAPSE       20.04 TCPU       18.16
 CHARGE NORMALIZATION FACTOR   1.00000000
 TOTAL ATOMIC CHARGES:
   6.0227889   6.0076096   5.9962433   5.9987242   5.9546888   5.9968943
   5.9951016   5.9969986   6.0026827   6.0576549   6.0041409   5.9892155
   6.0017327   5.9837533   5.9917707
 TTTTTTTTTTTTTTTTTTTTTTTTTTTTTT MOQGAD      TELAPSE       20.04 TCPU       18.16
 TTTTTTTTTTTTTTTTTTTTTTTTTTTTTT SHELLXN     TELAPSE       20.74 TCPU       18.86
 TTTTTTTTTTTTTTTTTTTTTTTTTTTTTT MONMO3      TELAPSE       20.86 TCPU       18.99
 NUMERICALLY INTEGRATED DENSITY     89.9998170826
 TTTTTTTTTTTTTTTTTTTTTTTTTTTTTT NUMDFT      TELAPSE       21.12 TCPU       19.24
 CYC  12 ETOT(AU) -5.705848462511E+02 DETOT -1.02E-06 tst  1.94E-08 PX  2.59E-04
 TTTTTTTTTTTTTTTTTTTTTTTTTTTTTT DIIS        TELAPSE       21.17 TCPU       19.29
 DIIS TEST: 0.46329E-05 AT SCF   CYCLE  12 - DIIS ACTIVE - HISTORY:    12 CYCLES
 TTTTTTTTTTTTTTTTTTTTTTTTTTTTTT FDIK        TELAPSE       21.35 TCPU       19.46
 POSSIBLY CONDUCTING STATE - EFERMI(AU) -1.8014674E-01 (RES. CHARGE  5.40E-13;IT.  8)
 TTTTTTTTTTTTTTTTTTTTTTTTTTTTTT PDIG        TELAPSE       21.43 TCPU       19.55
 CHARGE NORMALIZATION FACTOR   1.00000000
 TOTAL ATOMIC CHARGES:
   6.0229351   6.0075566   5.9964049   5.9987656   5.9544641   5.9969508
   5.9967539   5.9960483   6.0024683   6.0574429   6.0039713   5.9891744
   6.0017366   5.9836440   5.9916831
 TTTTTTTTTTTTTTTTTTTTTTTTTTTTTT MOQGAD      TELAPSE       21.43 TCPU       19.55
 TTTTTTTTTTTTTTTTTTTTTTTTTTTTTT SHELLXN     TELAPSE       22.14 TCPU       20.25
 TTTTTTTTTTTTTTTTTTTTTTTTTTTTTT MONMO3      TELAPSE       22.26 TCPU       20.37
 NUMERICALLY INTEGRATED DENSITY     89.9998170950
 TTTTTTTTTTTTTTTTTTTTTTTTTTTTTT NUMDFT      TELAPSE       22.64 TCPU       20.75
 CYC  13 ETOT(AU) -5.705848467876E+02 DETOT -5.36E-07 tst  2.60E-08 PX  1.91E-04
 TTTTTTTTTTTTTTTTTTTTTTTTTTTTTT DIIS        TELAPSE       22.67 TCPU       20.78
 DIIS TEST: 0.20771E-05 AT SCF   CYCLE  13 - DIIS ACTIVE - HISTORY:    13 CYCLES
 TTTTTTTTTTTTTTTTTTTTTTTTTTTTTT FDIK        TELAPSE       22.85 TCPU       20.95
 POSSIBLY CONDUCTING STATE - EFERMI(AU) -1.8014695E-01 (RES. CHARGE  3.98E-13;IT.  6)
 TTTTTTTTTTTTTTTTTTTTTTTTTTTTTT PDIG        TELAPSE       22.93 TCPU       21.04
 CHARGE NORMALIZATION FACTOR   1.00000000
 TOTAL ATOMIC CHARGES:
   6.0229637   6.0075799   5.9964178   5.9986627   5.9548799   5.9970011
   5.9963436   5.9962732   6.0017998   6.0577432   6.0039268   5.9891875
   6.0015577   5.9841079   5.9915556
 TTTTTTTTTTTTTTTTTTTTTTTTTTTTTT MOQGAD      TELAPSE       22.93 TCPU       21.04
 TTTTTTTTTTTTTTTTTTTTTTTTTTTTTT SHELLXN     TELAPSE       23.64 TCPU       21.74
 TTTTTTTTTTTTTTTTTTTTTTTTTTTTTT MONMO3      TELAPSE       23.76 TCPU       21.87
 NUMERICALLY INTEGRATED DENSITY     89.9998171025
 TTTTTTTTTTTTTTTTTTTTTTTTTTTTTT NUMDFT      TELAPSE       24.14 TCPU       22.24
 CYC  14 ETOT(AU) -5.705848475213E+02 DETOT -7.34E-07 tst  5.40E-09 PX  1.24E-04
 TTTTTTTTTTTTTTTTTTTTTTTTTTTTTT DIIS        TELAPSE       24.17 TCPU       22.28
 DIIS TEST: 0.49993E-07 AT SCF   CYCLE  14 - DIIS ACTIVE - HISTORY:    14 CYCLES
 TTTTTTTTTTTTTTTTTTTTTTTTTTTTTT FDIK        TELAPSE       24.36 TCPU       22.46
 POSSIBLY CONDUCTING STATE - EFERMI(AU) -1.8014523E-01 (RES. CHARGE  1.74E-11;IT.  6)
 TTTTTTTTTTTTTTTTTTTTTTTTTTTTTT PDIG        TELAPSE       24.44 TCPU       22.55
 CHARGE NORMALIZATION FACTOR   1.00000000
 TOTAL ATOMIC CHARGES:
   6.0229182   6.0075621   5.9964080   5.9987243   5.9548698   5.9970557
   5.9963700   5.9962830   6.0017399   6.0577142   6.0039030   5.9891012
   6.0016049   5.9841365   5.9916092
 TTTTTTTTTTTTTTTTTTTTTTTTTTTTTT MOQGAD      TELAPSE       24.45 TCPU       22.55
 TTTTTTTTTTTTTTTTTTTTTTTTTTTTTT SHELLXN     TELAPSE       25.15 TCPU       23.25
 TTTTTTTTTTTTTTTTTTTTTTTTTTTTTT MONMO3      TELAPSE       25.27 TCPU       23.38
 NUMERICALLY INTEGRATED DENSITY     89.9998171022
 TTTTTTTTTTTTTTTTTTTTTTTTTTTTTT NUMDFT      TELAPSE       25.64 TCPU       23.74
 CYC  15 ETOT(AU) -5.705848474932E+02 DETOT  2.81E-08 tst  2.08E-10 PX  1.44E-05
 TTTTTTTTTTTTTTTTTTTTTTTTTTTTTT DIIS        TELAPSE       25.68 TCPU       23.78
 DIIS TEST: 0.81124E-08 AT SCF   CYCLE  15 - DIIS ACTIVE - HISTORY:    15 CYCLES
 TTTTTTTTTTTTTTTTTTTTTTTTTTTTTT FDIK        TELAPSE       25.85 TCPU       23.95
 POSSIBLY CONDUCTING STATE - EFERMI(AU) -1.8014484E-01 (RES. CHARGE  2.06E-13;IT.  6)
 TTTTTTTTTTTTTTTTTTTTTTTTTTTTTT PDIG        TELAPSE       25.94 TCPU       24.04
 CHARGE NORMALIZATION FACTOR   1.00000000
 TOTAL ATOMIC CHARGES:
   6.0229260   6.0075695   5.9964000   5.9987059   5.9548523   5.9970343
   5.9963928   5.9962478   6.0017304   6.0577317   6.0039261   5.9891361
   6.0015785   5.9841611   5.9916076
 TTTTTTTTTTTTTTTTTTTTTTTTTTTTTT MOQGAD      TELAPSE       25.94 TCPU       24.04
 TTTTTTTTTTTTTTTTTTTTTTTTTTTTTT SHELLXN     TELAPSE       26.65 TCPU       24.74
 TTTTTTTTTTTTTTTTTTTTTTTTTTTTTT MONMO3      TELAPSE       26.77 TCPU       24.87
 NUMERICALLY INTEGRATED DENSITY     89.9998171023
 TTTTTTTTTTTTTTTTTTTTTTTTTTTTTT NUMDFT      TELAPSE       27.14 TCPU       25.24
 CYC  16 ETOT(AU) -5.705848474902E+02 DETOT  3.03E-09 tst  3.79E-11 PX  4.97E-06
 TTTTTTTTTTTTTTTTTTTTTTTTTTTTTT DIIS        TELAPSE       27.18 TCPU       25.28
 DIIS TEST: 0.69754E-09 AT SCF   CYCLE  16 - DIIS ACTIVE - HISTORY:    16 CYCLES
 TTTTTTTTTTTTTTTTTTTTTTTTTTTTTT FDIK        TELAPSE       27.36 TCPU       25.46
 POSSIBLY CONDUCTING STATE - EFERMI(AU) -1.8014480E-01 (RES. CHARGE  2.23E-10;IT.  4)
 TTTTTTTTTTTTTTTTTTTTTTTTTTTTTT PDIG        TELAPSE       27.45 TCPU       25.54
 CHARGE NORMALIZATION FACTOR   1.00000000
 TOTAL ATOMIC CHARGES:
   6.0229334   6.0075622   5.9964035   5.9987039   5.9548520   5.9970330
   5.9963824   5.9962542   6.0017301   6.0577211   6.0039240   5.9891342
   6.0015892   5.9841699   5.9916069
 TTTTTTTTTTTTTTTTTTTTTTTTTTTTTT MOQGAD      TELAPSE       27.45 TCPU       25.54
 TTTTTTTTTTTTTTTTTTTTTTTTTTTTTT SHELLXN     TELAPSE       28.15 TCPU       26.25
 TTTTTTTTTTTTTTTTTTTTTTTTTTTTTT MONMO3      TELAPSE       28.28 TCPU       26.37
 NUMERICALLY INTEGRATED DENSITY     89.9998171022
 TTTTTTTTTTTTTTTTTTTTTTTTTTTTTT NUMDFT      TELAPSE       28.53 TCPU       26.63
 CYC  17 ETOT(AU) -5.705848474898E+02 DETOT  3.57E-10 tst  3.26E-12 PX  2.25E-06
 TTTTTTTTTTTTTTTTTTTTTTTTTTTTTT DIIS        TELAPSE       28.56 TCPU       26.65
 DIIS TEST: 0.10774E-09 AT SCF   CYCLE  17 - DIIS ACTIVE - HISTORY:    17 CYCLES
 TTTTTTTTTTTTTTTTTTTTTTTTTTTTTT FDIK        TELAPSE       28.74 TCPU       26.83
 POSSIBLY CONDUCTING STATE - EFERMI(AU) -1.8014483E-01 (RES. CHARGE  1.08E-10;IT.  4)
 TTTTTTTTTTTTTTTTTTTTTTTTTTTTTT PDIG        TELAPSE       28.83 TCPU       26.92
 CHARGE NORMALIZATION FACTOR   1.00000000
 TOTAL ATOMIC CHARGES:
   6.0229300   6.0075653   5.9964028   5.9987054   5.9548515   5.9970370
   5.9963851   5.9962533   6.0017300   6.0577208   6.0039237   5.9891330
   6.0015843   5.9841710   5.9916070
 TTTTTTTTTTTTTTTTTTTTTTTTTTTTTT MOQGAD      TELAPSE       28.83 TCPU       26.92
 TTTTTTTTTTTTTTTTTTTTTTTTTTTTTT SHELLXN     TELAPSE       29.53 TCPU       27.62
 +++ ENERGIES IN A.U. +++
 ::: EXT EL-POLE                                  -7.9828887055786E+02
 ::: EXT EL-SPHEROPOLE                             6.1558347607221E+00
 ::: BIELET ZONE E-E                               1.1958910975832E+03
 ::: TOTAL E-E                                     4.0375806178609E+02
 ::: TOTAL E-N + N-E                              -1.5866933863127E+03
 ::: TOTAL N-N                                     1.2525434594890E+02
 ::: KINETIC ENERGY                                5.6741828795473E+02
 ::: PSEUDO TOTAL   ENERGY                        -4.9026269062299E+02
 ::: VIRIAL COEFFICIENT                            1.0729478915613E+00
 TTTTTTTTTTTTTTTTTTTTTTTTTTTTTT MONMO3      TELAPSE       29.65 TCPU       27.74
 NUMERICALLY INTEGRATED DENSITY     89.9998171023
 TTTTTTTTTTTTTTTTTTTTTTTTTTTTTT NUMDFT      TELAPSE       30.03 TCPU       28.12
 CYC  18 ETOT(AU) -5.705848474939E+02 DETOT -4.12E-09 tst  1.07E-13 PX  2.25E-06

 == SCF ENDED - CONVERGENCE ON ENERGY      E(AU) -5.7058484749395E+02 CYCLES  18


 ENERGY EXPRESSION=HARTREE+FOCK EXCH*0.00000+(PBE        EXCH)*1.00000+PBE        CORR


 TOTAL ENERGY(DFT)(AU)( 18) -5.7058484749395E+02 DE-4.1E-09 tester 1.1E-13
 TTTTTTTTTTTTTTTTTTTTTTTTTTTTTT EDFT        TELAPSE       30.04 TCPU       28.14
 EIGENVECTORS IN FORTRAN UNIT  8
 TTTTTTTTTTTTTTTTTTTTTTTTTTTTTT END         TELAPSE       30.18 TCPU       28.27
 EEEEEEEEEE TERMINATION  DATE 31 10 2022 TIME 17:17:22.3
NODE    0 CPU TIME =        28.268
    TOTAL CPU TIME =      3650.858
Note: The following floating-point exceptions are signalling: IEEE_UNDERFLOW_FLAG IEEE_DENORMAL
Note: The following floating-point exceptions are signalling: IEEE_UNDERFLOW_FLAG IEEE_DENORMAL
Note: The following floating-point exceptions are signalling: IEEE_UNDERFLOW_FLAG IEEE_DENORMAL
Note: The following floating-point exceptions are signalling: IEEE_UNDERFLOW_FLAG IEEE_DENORMAL
Note: The following floating-point exceptions are signalling: IEEE_UNDERFLOW_FLAG IEEE_DENORMAL
Note: The following floating-point exceptions are signalling: IEEE_UNDERFLOW_FLAG IEEE_DENORMAL
Note: The following floating-point exceptions are signalling: IEEE_UNDERFLOW_FLAG IEEE_DENORMAL
Note: The following floating-point exceptions are signalling: IEEE_UNDERFLOW_FLAG IEEE_DENORMAL
Note: The following floating-point exceptions are signalling: IEEE_UNDERFLOW_FLAG IEEE_DENORMAL
Note: The following floating-point exceptions are signalling: IEEE_UNDERFLOW_FLAG IEEE_DENORMAL
Note: The following floating-point exceptions are signalling: IEEE_UNDERFLOW_FLAG IEEE_DENORMAL
Note: The following floating-point exceptions are signalling: IEEE_UNDERFLOW_FLAG IEEE_DENORMAL
Note: The following floating-point exceptions are signalling: IEEE_UNDERFLOW_FLAG IEEE_DENORMAL
Note: The following floating-point exceptions are signalling: IEEE_UNDERFLOW_FLAG IEEE_DENORMAL
Note: The following floating-point exceptions are signalling: IEEE_UNDERFLOW_FLAG IEEE_DENORMAL
Note: The following floating-point exceptions are signalling: IEEE_UNDERFLOW_FLAG IEEE_DENORMAL
Note: The following floating-point exceptions are signalling: IEEE_UNDERFLOW_FLAG IEEE_DENORMAL
Note: The following floating-point exceptions are signalling: IEEE_UNDERFLOW_FLAG IEEE_DENORMAL
Note: The following floating-point exceptions are signalling: IEEE_UNDERFLOW_FLAG IEEE_DENORMAL
Note: The following floating-point exceptions are signalling: IEEE_UNDERFLOW_FLAG IEEE_DENORMAL
Note: The following floating-point exceptions are signalling: IEEE_UNDERFLOW_FLAG IEEE_DENORMAL
Note: The following floating-point exceptions are signalling: IEEE_UNDERFLOW_FLAG IEEE_DENORMAL
Note: The following floating-point exceptions are signalling: IEEE_UNDERFLOW_FLAG IEEE_DENORMAL
Note: The following floating-point exceptions are signalling: IEEE_UNDERFLOW_FLAG IEEE_DENORMAL
Note: The following floating-point exceptions are signalling: IEEE_UNDERFLOW_FLAG IEEE_DENORMAL
Note: The following floating-point exceptions are signalling: IEEE_UNDERFLOW_FLAG IEEE_DENORMAL
Note: The following floating-point exceptions are signalling: IEEE_UNDERFLOW_FLAG IEEE_DENORMAL
Note: The following floating-point exceptions are signalling: IEEE_UNDERFLOW_FLAG IEEE_DENORMAL
Note: The following floating-point exceptions are signalling: IEEE_UNDERFLOW_FLAG IEEE_DENORMAL
Note: The following floating-point exceptions are signalling: IEEE_UNDERFLOW_FLAG IEEE_DENORMAL
Note: The following floating-point exceptions are signalling: IEEE_UNDERFLOW_FLAG IEEE_DENORMAL
Note: The following floating-point exceptions are signalling: IEEE_UNDERFLOW_FLAG IEEE_DENORMAL
Note: The following floating-point exceptions are signalling: IEEE_UNDERFLOW_FLAG IEEE_DENORMAL
Note: The following floating-point exceptions are signalling: IEEE_UNDERFLOW_FLAG IEEE_DENORMAL
Note: The following floating-point exceptions are signalling: IEEE_UNDERFLOW_FLAG IEEE_DENORMAL
Note: The following floating-point exceptions are signalling: IEEE_UNDERFLOW_FLAG IEEE_DENORMAL
Note: The following floating-point exceptions are signalling: IEEE_UNDERFLOW_FLAG IEEE_DENORMAL
Note: The following floating-point exceptions are signalling: IEEE_UNDERFLOW_FLAG IEEE_DENORMAL
Note: The following floating-point exceptions are signalling: IEEE_UNDERFLOW_FLAG IEEE_DENORMAL
Note: The following floating-point exceptions are signalling: IEEE_UNDERFLOW_FLAG IEEE_DENORMAL
Note: The following floating-point exceptions are signalling: IEEE_UNDERFLOW_FLAG IEEE_DENORMAL
Note: The following floating-point exceptions are signalling: IEEE_UNDERFLOW_FLAG IEEE_DENORMAL
Note: The following floating-point exceptions are signalling: IEEE_UNDERFLOW_FLAG IEEE_DENORMAL
Note: The following floating-point exceptions are signalling: IEEE_UNDERFLOW_FLAG IEEE_DENORMAL
Note: The following floating-point exceptions are signalling: IEEE_UNDERFLOW_FLAG IEEE_DENORMAL
Note: The following floating-point exceptions are signalling: IEEE_UNDERFLOW_FLAG IEEE_DENORMAL
Note: The following floating-point exceptions are signalling: IEEE_UNDERFLOW_FLAG IEEE_DENORMAL
Note: The following floating-point exceptions are signalling: IEEE_UNDERFLOW_FLAG IEEE_DENORMAL
Note: The following floating-point exceptions are signalling: IEEE_UNDERFLOW_FLAG IEEE_DENORMAL
Note: The following floating-point exceptions are signalling: IEEE_UNDERFLOW_FLAG IEEE_DENORMAL
Note: The following floating-point exceptions are signalling: IEEE_UNDERFLOW_FLAG IEEE_DENORMAL
Note: The following floating-point exceptions are signalling: IEEE_UNDERFLOW_FLAG IEEE_DENORMAL
Note: The following floating-point exceptions are signalling: IEEE_UNDERFLOW_FLAG IEEE_DENORMAL
Note: The following floating-point exceptions are signalling: IEEE_UNDERFLOW_FLAG IEEE_DENORMAL
Note: The following floating-point exceptions are signalling: IEEE_UNDERFLOW_FLAG IEEE_DENORMAL
Note: The following floating-point exceptions are signalling: IEEE_UNDERFLOW_FLAG IEEE_DENORMAL
Note: The following floating-point exceptions are signalling: IEEE_UNDERFLOW_FLAG IEEE_DENORMAL
Note: The following floating-point exceptions are signalling: IEEE_UNDERFLOW_FLAG IEEE_DENORMAL
Note: The following floating-point exceptions are signalling: IEEE_UNDERFLOW_FLAG IEEE_DENORMAL
Note: The following floating-point exceptions are signalling: IEEE_UNDERFLOW_FLAG IEEE_DENORMAL
Note: The following floating-point exceptions are signalling: IEEE_UNDERFLOW_FLAG IEEE_DENORMAL
Note: The following floating-point exceptions are signalling: IEEE_UNDERFLOW_FLAG IEEE_DENORMAL
Note: The following floating-point exceptions are signalling: IEEE_UNDERFLOW_FLAG IEEE_DENORMAL
Note: The following floating-point exceptions are signalling: IEEE_UNDERFLOW_FLAG IEEE_DENORMAL
Note: The following floating-point exceptions are signalling: IEEE_UNDERFLOW_FLAG IEEE_DENORMAL
Note: The following floating-point exceptions are signalling: IEEE_UNDERFLOW_FLAG IEEE_DENORMAL
Note: The following floating-point exceptions are signalling: IEEE_UNDERFLOW_FLAG IEEE_DENORMAL
Note: The following floating-point exceptions are signalling: IEEE_UNDERFLOW_FLAG IEEE_DENORMAL
Note: The following floating-point exceptions are signalling: IEEE_UNDERFLOW_FLAG IEEE_DENORMAL
Note: The following floating-point exceptions are signalling: IEEE_UNDERFLOW_FLAG IEEE_DENORMAL
Note: The following floating-point exceptions are signalling: IEEE_UNDERFLOW_FLAG IEEE_DENORMAL
Note: The following floating-point exceptions are signalling: IEEE_UNDERFLOW_FLAG IEEE_DENORMAL
Note: The following floating-point exceptions are signalling: IEEE_UNDERFLOW_FLAG IEEE_DENORMAL
Note: The following floating-point exceptions are signalling: IEEE_UNDERFLOW_FLAG IEEE_DENORMAL
Note: The following floating-point exceptions are signalling: IEEE_UNDERFLOW_FLAG IEEE_DENORMAL
Note: The following floating-point exceptions are signalling: IEEE_UNDERFLOW_FLAG IEEE_DENORMAL
Note: The following floating-point exceptions are signalling: IEEE_UNDERFLOW_FLAG IEEE_DENORMAL
Note: The following floating-point exceptions are signalling: IEEE_UNDERFLOW_FLAG IEEE_DENORMAL
Note: The following floating-point exceptions are signalling: IEEE_UNDERFLOW_FLAG IEEE_DENORMAL
Note: The following floating-point exceptions are signalling: IEEE_UNDERFLOW_FLAG IEEE_DENORMAL
Note: The following floating-point exceptions are signalling: IEEE_UNDERFLOW_FLAG IEEE_DENORMAL
Note: The following floating-point exceptions are signalling: IEEE_UNDERFLOW_FLAG IEEE_DENORMAL
Note: The following floating-point exceptions are signalling: IEEE_UNDERFLOW_FLAG IEEE_DENORMAL
Note: The following floating-point exceptions are signalling: IEEE_UNDERFLOW_FLAG IEEE_DENORMAL
Note: The following floating-point exceptions are signalling: IEEE_UNDERFLOW_FLAG IEEE_DENORMAL
Note: The following floating-point exceptions are signalling: IEEE_UNDERFLOW_FLAG IEEE_DENORMAL
Note: The following floating-point exceptions are signalling: IEEE_UNDERFLOW_FLAG IEEE_DENORMAL
Note: The following floating-point exceptions are signalling: IEEE_UNDERFLOW_FLAG IEEE_DENORMAL
Note: The following floating-point exceptions are signalling: IEEE_UNDERFLOW_FLAG IEEE_DENORMAL
Note: The following floating-point exceptions are signalling: IEEE_UNDERFLOW_FLAG IEEE_DENORMAL
Note: The following floating-point exceptions are signalling: IEEE_UNDERFLOW_FLAG IEEE_DENORMAL
Note: The following floating-point exceptions are signalling: IEEE_UNDERFLOW_FLAG IEEE_DENORMAL
Note: The following floating-point exceptions are signalling: IEEE_UNDERFLOW_FLAG IEEE_DENORMAL
Note: The following floating-point exceptions are signalling: IEEE_UNDERFLOW_FLAG IEEE_DENORMAL
Note: The following floating-point exceptions are signalling: IEEE_UNDERFLOW_FLAG IEEE_DENORMAL
Note: The following floating-point exceptions are signalling: IEEE_UNDERFLOW_FLAG IEEE_DENORMAL
Note: The following floating-point exceptions are signalling: IEEE_UNDERFLOW_FLAG IEEE_DENORMAL
Note: The following floating-point exceptions are signalling: IEEE_UNDERFLOW_FLAG IEEE_DENORMAL
Note: The following floating-point exceptions are signalling: IEEE_UNDERFLOW_FLAG IEEE_DENORMAL
Note: The following floating-point exceptions are signalling: IEEE_UNDERFLOW_FLAG IEEE_DENORMAL
Note: The following floating-point exceptions are signalling: IEEE_UNDERFLOW_FLAG IEEE_DENORMAL
Note: The following floating-point exceptions are signalling: IEEE_UNDERFLOW_FLAG IEEE_DENORMAL
Note: The following floating-point exceptions are signalling: IEEE_UNDERFLOW_FLAG IEEE_DENORMAL
Note: The following floating-point exceptions are signalling: IEEE_UNDERFLOW_FLAG IEEE_DENORMAL
Note: The following floating-point exceptions are signalling: IEEE_UNDERFLOW_FLAG IEEE_DENORMAL
Note: The following floating-point exceptions are signalling: IEEE_UNDERFLOW_FLAG IEEE_DENORMAL
Note: The following floating-point exceptions are signalling: IEEE_UNDERFLOW_FLAG IEEE_DENORMAL
Note: The following floating-point exceptions are signalling: IEEE_UNDERFLOW_FLAG IEEE_DENORMAL
Note: The following floating-point exceptions are signalling: IEEE_UNDERFLOW_FLAG IEEE_DENORMAL
Note: The following floating-point exceptions are signalling: IEEE_UNDERFLOW_FLAG IEEE_DENORMAL
Note: The following floating-point exceptions are signalling: IEEE_UNDERFLOW_FLAG IEEE_DENORMAL
Note: The following floating-point exceptions are signalling: IEEE_UNDERFLOW_FLAG IEEE_DENORMAL
Note: The following floating-point exceptions are signalling: IEEE_UNDERFLOW_FLAG IEEE_DENORMAL
Note: The following floating-point exceptions are signalling: IEEE_UNDERFLOW_FLAG IEEE_DENORMAL
Note: The following floating-point exceptions are signalling: IEEE_UNDERFLOW_FLAG IEEE_DENORMAL
Note: The following floating-point exceptions are signalling: IEEE_UNDERFLOW_FLAG IEEE_DENORMAL
Note: The following floating-point exceptions are signalling: IEEE_UNDERFLOW_FLAG IEEE_DENORMAL
Note: The following floating-point exceptions are signalling: IEEE_UNDERFLOW_FLAG IEEE_DENORMAL
Note: The following floating-point exceptions are signalling: IEEE_UNDERFLOW_FLAG IEEE_DENORMAL
Note: The following floating-point exceptions are signalling: IEEE_UNDERFLOW_FLAG IEEE_DENORMAL
Note: The following floating-point exceptions are signalling: IEEE_UNDERFLOW_FLAG IEEE_DENORMAL
Note: The following floating-point exceptions are signalling: IEEE_UNDERFLOW_FLAG IEEE_DENORMAL
Note: The following floating-point exceptions are signalling: IEEE_UNDERFLOW_FLAG IEEE_DENORMAL
Note: The following floating-point exceptions are signalling: IEEE_UNDERFLOW_FLAG IEEE_DENORMAL
Note: The following floating-point exceptions are signalling: IEEE_UNDERFLOW_FLAG IEEE_DENORMAL
Note: The following floating-point exceptions are signalling: IEEE_UNDERFLOW_FLAG IEEE_DENORMAL
Note: The following floating-point exceptions are signalling: IEEE_UNDERFLOW_FLAG IEEE_DENORMAL
Note: The following floating-point exceptions are signalling: IEEE_UNDERFLOW_FLAG IEEE_DENORMAL
end_date Mon Oct 31 17:17:22 GMT 2022
 
TEMPORARY          SAVED (in /mnt/lustre/a2fs-work2/work/e05/e05/bcamino/quantum_computing/test_model)
fort.34            graphene_3v_C.gui 1311     Oct 31 17:17
fort.9             graphene_3v_C.f9  1356464  Oct 31 17:17
fort.98            graphene_3v_C.f98 3544056  Oct 31 17:17
 
Disk usage:<du -m>
401	/mnt/lustre/a2fs-work2/work/e05/e05/bcamino/quantum_computing/test_model/tmp_graphene_3v_C_
</du -m>
Filesystem                                          1K-blocks          Used     Available Use% Mounted on
10.253.102.2@o2ib1:10.253.102.3@o2ib1:/cls01097 3582178503216 1808983807576 1736999215220  52% /mnt/lustre/a2fs-work2
10.253.102.2@o2ib1:10.253.102.3@o2ib1:/cls01097 3582178503216 1808983807576 1736999215220  52% /mnt/lustre/a2fs-work2
