date:                Mon Oct 31 17:24:23 GMT 2022
hostname:            nid002533
system:              Linux nid002533 4.12.14-197.78_9.1.64-cray_shasta_c #1 SMP Wed Aug 25 14:56:40 UTC 2021 (4e2a900) x86_64 x86_64 x86_64 GNU/Linux
user:                bcamino
input:               /mnt/lustre/a2fs-work2/work/e05/e05/bcamino/quantum_computing/test_model/graphene_3v_N.d12
output:              /mnt/lustre/a2fs-work2/work/e05/e05/bcamino/quantum_computing/test_model/graphene_3v_N.out
executable script:   /work/e05/e05/bcamino/runCRYSTAL/Pcry_slurm
executable:          Pcrystal
Command:             srun --hint=nomultithread --distribution=block:block Pcrystal
Slurm JobID:         
temporary directory: /mnt/lustre/a2fs-work2/work/e05/e05/bcamino/quantum_computing/test_model/tmp_graphene_3v_N_      
input data /mnt/lustre/a2fs-work2/work/e05/e05/bcamino/quantum_computing/test_model/graphene_3v_N.d12
Final
EXTERNAL
SYMMREMO
END
6 8
0 0 6 2.0 1.0
  13575.349682      0.00022245814352
  2035.2333680      0.00172327382520
  463.22562359      0.00892557153140
  131.20019598      0.03572798450200
  42.853015891      0.11076259931000
  15.584185766      0.24295627626000
0 0 2 2.0 1.0
  6.2067138508      0.41440263448000
  2.5764896527      0.23744968655000
0 0 1 0.0 1.0
  0.4941102000      1.00000000000000
0 0 1 0.0 1.0
  0.1644071000      1.00000000000000
0 2 4 2.0 1.0
  34.697232244      0.00533336578050
  7.9582622826      0.03586410909200
  2.3780826883      0.14215873329000
  0.8143320818      0.34270471845000
0 2 1 0.0 1.0
  0.5662417100      1.00000000000000
0 2 1 0.0 1.0
  0.1973545000      1.00000000000000
0 3 1 0.0 1.0
  0.5791584200      1.00000000000000
99 0
ENDBS
DFT
PBE  
ENDDFT
TOLINTEG
8 8 8 8 16
SCFDIR
SHRINK
8 16  
MAXCYCLE
200
TOLDEE
9 
ENDSCF
input data /mnt/lustre/a2fs-work2/work/e05/e05/bcamino/quantum_computing/test_model/graphene_3v_N.gui
         128 PROCESSORS WORKING

         
 *******************************************************************************
 *                                                                             *
 *                               CRYSTAL17                                     *
 *                      public : 1.0.2 - March 1st, 2018 STFC/Archer2 build    *
 *                       HTTP://WWW.CRYSTAL.UNITO.IT                           *
 *                                                                             *
 *                              MAIN AUTHORS                                   *
 *                                                                             *
 *  R. DOVESI(1,11), V.R. SAUNDERS(2), C. ROETTI(1,11), R. ORLANDO(1,11),      *
 *  C.M. ZICOVICH-WILSON(1,3), F. PASCALE(4), B. CIVALLERI(1,11),              *
 *  K. DOLL(5), N.M. HARRISON(2,6), I.J. BUSH(7), Ph. D'ARCO(8),               *
 *  M. LLUNELL(9), M. CAUSA'(10), Y. NOEL(8), L. MASCHIO(1,11), A. ERBA(1,11)  *
 *  M. RE'RAT(14), S. CASASSA(1,11)                                            *
 *                                                                             *
 *        CONTRIBUTIONS TO THE CODE HAVE ALSO BEEN GIVEN BY                    *
 *                                                                             *
 *  M. FERRABONE(1,11), M. DE LA PIERRE(1,11), M. FERRERO(1,11),               *
 *  J. BAIMA(1,11), E. ALBANESE(1,11), M.F. PEINTINGER(12), R. BAST(13),       *
 *  B. KIRTMAN(15), V. LACIVITA(1,11), R. DEMICHELIS(1,16)                     *
 *  G. BRANDEBURG(17), S. SALUSTRO(1,11), G. SANSONE(1,11)                     *
 *  M.T. RUGGIERO(18)                                                          *
 *                                                                             *
 * (1) THEORETICAL CHEMISTRY GROUP - UNIVERSITA' DI TORINO - TORINO (ITALY)    *
 * (2) COMPUTATIONAL SCIENCE & ENGINEERING DEPARTMENT - STFC DARESBURY (UK)    *
 * (3) UNIVERSIDAD AUTONOMA DEL ESTADO DE MORELOS - CUERNAVACA (MEXICO)        *
 * (4) UNIVERSITE' DE LORRAINE - NANCY (FRANCE)                                *
 * (5) UNIVERSITAET STUTTGART- STUTTGART (GERMANY)                             *
 * (6) IMPERIAL COLLEGE - LONDON (UK)                                          *
 * (7) OXFORD E-RESEARCH CENTRE - OXFORD (UK)                                  *
 * (8) UPMC - SORBONNE UNIVERSITES - PARIS (FRANCE)                            *
 * (9) UNIVERSIDAD DE BARCELONA - BARCELONA (SPAIN)                            *
 *(10) UNIVERSITA' DI NAPOLI "FEDERICO II" - NAPOLI (ITALY)                    *
 *(11) NIS - NANOSTRUCTURED INTERFACES AND SURFACES - TORINO (ITALY)           *
 *(12) MPI FUER CHEMISCHE ENERGIEKONVERSION - MUELHEIM AN DER RUHR (GERMANY)   *
 *(13) UNIVERSITY OF TROMSO - TROMSO (NORWAY)                                  *
 *(14) UNIVERSITE' DE PAU ET DES PAYS DE L'ADOUR - PAU (FRANCE)                *
 *(15) UNIVERSITY OF CALIFORNIA SANTA BARBARA - SANTA BARBARA (USA)            *
 *(16) CURTIN UNIVERSITY - PERTH (AUSTRALIA)                                   *
 *(17) UNIVERSITY COLLEGE LONDON - LONDON (UK)                                 *
 *(18) CAMBRIDGE UNIVERSITY - CAMBRIDGE (UK)                                   *
 *                                                                             *
 *******************************************************************************
 EEEEEEEEEE STARTING  DATE 31 10 2022 TIME 17:24:26.1
 Final                                                                           

 GEOMETRY INPUT FROM EXTERNAL FILE (FORTRAN UNIT 34)
 3D - CRYSTAL 

 *******************************************************************************
 LATTICE PARAMETERS  (ANGSTROMS AND DEGREES) - PRIMITIVE CELL
       A          B          C        ALPHA      BETA     GAMMA        VOLUME
    7.40317    7.40317    8.68504    90.00000  90.00000 120.00000    412.228566
 INFORMATION **** CHKGRP **** SPGR WITH NO INVERSION

 NUMBER OF IRREDUCIBLE ATOMS IN THE CELL:   15

 CARTESIAN COORDINATES (ANGSTROM) - IRREDUCIBLE ATOMS AND SYMMETRY RELATED

 AT.IRR.  AT  AT.N.          X                   Y                   Z
     1     1     6    1.233862070683E+00  7.123705986520E-01  2.605511400000E+00
     2     2     6    2.467724141366E+00 -1.424741197304E+00  2.605511400000E+00
     3     3     6    3.701586212049E+00  7.123705986520E-01  2.605511400000E+00
     4     4     6    4.935448282733E+00  2.849482394607E+00  2.605511400000E+00
     5     5     6    3.701586212049E+00 -3.561852993259E+00  2.605511400000E+00
     6     6     6    4.935448282733E+00 -1.424741197304E+00  2.605511400000E+00
     7     7     6    6.169310353416E+00  7.123705986520E-01  2.605511400000E+00
     8     8     6    1.233862070683E+00 -7.123705986520E-01  2.605511400000E+00
     9     9     6    2.467724141366E+00  1.424741197304E+00  2.605511400000E+00
    10    10     6    3.701586212049E+00  3.561852993259E+00  2.605511400000E+00
    11    11     6    2.467724141366E+00 -2.849482394607E+00  2.605511400000E+00
    12    12     6    3.701586212049E+00 -7.123705986520E-01  2.605511400000E+00
    13    13     6    4.935448282733E+00  1.424741197304E+00  2.605511400000E+00
    14    14     6    4.935448282733E+00 -2.849482394607E+00  2.605511400000E+00
    15    15     6    6.169310353416E+00 -7.123705986520E-01  2.605511400000E+00

 SPACE  GROUP  N.                     :    1
 NUMBER OF SYMMETRY OPERATORS         :    1
 *******************************************************************************
 LATTICE PARAMETERS (ANGSTROMS AND DEGREES) - BOHR = 0.5291772083 ANGSTROM
 PRIMITIVE CELL - CENTRING CODE 1/0 VOLUME=   412.228566 - DENSITY  0.725 g/cm^3
         A              B              C           ALPHA      BETA       GAMMA 
     7.40317242     7.40317242     8.68503800    90.000000  90.000000 120.000000
 *******************************************************************************
 ATOMS IN THE ASYMMETRIC UNIT   15 - ATOMS IN THE UNIT CELL:   15
     ATOM                 X/A                 Y/B                 Z/C    
 *******************************************************************************
      1 T   6 C     1.111111111111E-01  2.222222222222E-01  3.000000000000E-01
      2 T   6 C     4.444444444445E-01  2.222222222222E-01  3.000000000000E-01
      3 T   6 C     4.444444444444E-01 -4.444444444444E-01  3.000000000000E-01
      4 T   6 C     4.444444444446E-01 -1.111111111110E-01  3.000000000000E-01
      5 T   6 C    -2.222222222222E-01  2.222222222222E-01  3.000000000000E-01
      6 T   6 C    -2.222222222221E-01 -4.444444444443E-01  3.000000000000E-01
      7 T   6 C    -2.222222222221E-01 -1.111111111110E-01  3.000000000000E-01
      8 T   6 C     2.222222222222E-01  1.111111111111E-01  3.000000000000E-01
      9 T   6 C     2.222222222222E-01  4.444444444445E-01  3.000000000000E-01
     10 T   6 C     2.222222222222E-01 -2.222222222222E-01  3.000000000000E-01
     11 T   6 C    -4.444444444445E-01  1.111111111111E-01  3.000000000000E-01
     12 T   6 C    -4.444444444444E-01  4.444444444444E-01  3.000000000000E-01
     13 T   6 C    -4.444444444443E-01 -2.222222222221E-01  3.000000000000E-01
     14 T   6 C    -1.111111111110E-01  4.444444444446E-01  3.000000000000E-01
     15 T   6 C    -1.111111111110E-01 -2.222222222221E-01  3.000000000000E-01

 T = ATOM BELONGING TO THE ASYMMETRIC UNIT
 *******************************************************************************
 * GEOMETRY EDITING - INPUT COORDINATES ARE GIVEN IN ANGSTROM         
 *******************************************************************************

 USE OF SYMMETRY WILL BE SUBSEQUENTLY SUSPENDED

 GCALCO - MAX INDICES DIRECT LATTICE VECTOR    16    16    12
 NO.OF VECTORS CREATED 6999 STARS  379 RMAX   166.99060 BOHR

 GEOMETRY FOR WAVE FUNCTION - DIMENSIONALITY OF THE SYSTEM    3
 (NON PERIODIC DIRECTION: LATTICE PARAMETER FORMALLY SET TO 500)
 *******************************************************************************
 LATTICE PARAMETERS (ANGSTROMS AND DEGREES) - BOHR = 0.5291772083 ANGSTROM
 PRIMITIVE CELL - CENTRING CODE 1/0 VOLUME=   412.228566 - DENSITY  0.725 g/cm^3
         A              B              C           ALPHA      BETA       GAMMA 
     7.40317242     7.40317242     8.68503800    90.000000  90.000000 120.000000
 *******************************************************************************
 ATOMS IN THE ASYMMETRIC UNIT   15 - ATOMS IN THE UNIT CELL:   15
     ATOM                 X/A                 Y/B                 Z/C    
 *******************************************************************************
      1 T   6 C     1.111111111111E-01  2.222222222222E-01  3.000000000000E-01
      2 T   6 C     4.444444444445E-01  2.222222222222E-01  3.000000000000E-01
      3 T   6 C     4.444444444444E-01 -4.444444444444E-01  3.000000000000E-01
      4 T   6 C     4.444444444446E-01 -1.111111111110E-01  3.000000000000E-01
      5 T   6 C    -2.222222222222E-01  2.222222222222E-01  3.000000000000E-01
      6 T   6 C    -2.222222222221E-01 -4.444444444443E-01  3.000000000000E-01
      7 T   6 C    -2.222222222221E-01 -1.111111111110E-01  3.000000000000E-01
      8 T   6 C     2.222222222222E-01  1.111111111111E-01  3.000000000000E-01
      9 T   6 C     2.222222222222E-01  4.444444444445E-01  3.000000000000E-01
     10 T   6 C     2.222222222222E-01 -2.222222222222E-01  3.000000000000E-01
     11 T   6 C    -4.444444444445E-01  1.111111111111E-01  3.000000000000E-01
     12 T   6 C    -4.444444444444E-01  4.444444444444E-01  3.000000000000E-01
     13 T   6 C    -4.444444444443E-01 -2.222222222221E-01  3.000000000000E-01
     14 T   6 C    -1.111111111110E-01  4.444444444446E-01  3.000000000000E-01
     15 T   6 C    -1.111111111110E-01 -2.222222222221E-01  3.000000000000E-01

 T = ATOM BELONGING TO THE ASYMMETRIC UNIT

 ****    1 SYMMOPS - TRANSLATORS IN FRACTIONAL UNITS
 **** MATRICES AND TRANSLATORS IN THE CRYSTALLOGRAPHIC REFERENCE FRAME
   V INV                    ROTATION MATRICES                   TRANSLATORS
   1   1  1.00  0.00  0.00  0.00  1.00  0.00  0.00  0.00  1.00  0.00  0.00  0.00

 DIRECT LATTICE VECTORS CARTESIAN COMPONENTS (ANGSTROM)
          X                    Y                    Z
   0.370158621205E+01  -0.641133538787E+01   0.000000000000E+00
   0.370158621205E+01   0.641133538787E+01   0.000000000000E+00
   0.000000000000E+00   0.000000000000E+00   0.868503800000E+01


 CARTESIAN COORDINATES - PRIMITIVE CELL
 *******************************************************************************
 *      ATOM          X(ANGSTROM)         Y(ANGSTROM)         Z(ANGSTROM)
 *******************************************************************************
    1     6 C     1.233862070683E+00  7.123705986520E-01  2.605511400000E+00
    2     6 C     2.467724141366E+00 -1.424741197304E+00  2.605511400000E+00
    3     6 C     3.701586212049E+00  7.123705986520E-01  2.605511400000E+00
    4     6 C     4.935448282733E+00  2.849482394607E+00  2.605511400000E+00
    5     6 C     3.701586212049E+00 -3.561852993259E+00  2.605511400000E+00
    6     6 C     4.935448282733E+00 -1.424741197304E+00  2.605511400000E+00
    7     6 C     6.169310353416E+00  7.123705986520E-01  2.605511400000E+00
    8     6 C     1.233862070683E+00 -7.123705986520E-01  2.605511400000E+00
    9     6 C     2.467724141366E+00  1.424741197304E+00  2.605511400000E+00
   10     6 C     3.701586212049E+00  3.561852993259E+00  2.605511400000E+00
   11     6 C     2.467724141366E+00 -2.849482394607E+00  2.605511400000E+00
   12     6 C     3.701586212049E+00 -7.123705986520E-01  2.605511400000E+00
   13     6 C     4.935448282733E+00  1.424741197304E+00  2.605511400000E+00
   14     6 C     4.935448282733E+00 -2.849482394607E+00  2.605511400000E+00
   15     6 C     6.169310353416E+00 -7.123705986520E-01  2.605511400000E+00

 *******************************************************************************
 LOCAL ATOMIC FUNCTIONS BASIS SET
 *******************************************************************************
   ATOM   X(AU)   Y(AU)   Z(AU)  N. TYPE  EXPONENT  S COEF   P COEF   D/F/G COEF
 *******************************************************************************
   1 C    2.332   1.346   4.924
                                  1 S  
                                         1.358E+04 2.225E-04 0.000E+00 0.000E+00
                                         2.035E+03 1.723E-03 0.000E+00 0.000E+00
                                         4.632E+02 8.926E-03 0.000E+00 0.000E+00
                                         1.312E+02 3.573E-02 0.000E+00 0.000E+00
                                         4.285E+01 1.108E-01 0.000E+00 0.000E+00
                                         1.558E+01 2.430E-01 0.000E+00 0.000E+00
                                  2 S  
                                         6.207E+00 4.144E-01 0.000E+00 0.000E+00
                                         2.576E+00 2.374E-01 0.000E+00 0.000E+00
                                  3 S  
                                         4.941E-01 1.000E+00 0.000E+00 0.000E+00
                                  4 S  
                                         1.644E-01 1.000E+00 0.000E+00 0.000E+00
                           5-     7 P  
                                         3.470E+01 0.000E+00 5.333E-03 0.000E+00
                                         7.958E+00 0.000E+00 3.586E-02 0.000E+00
                                         2.378E+00 0.000E+00 1.422E-01 0.000E+00
                                         8.143E-01 0.000E+00 3.427E-01 0.000E+00
                           8-    10 P  
                                         5.662E-01 0.000E+00 1.000E+00 0.000E+00
                          11-    13 P  
                                         1.974E-01 0.000E+00 1.000E+00 0.000E+00
                          14-    18 D  
                                         5.792E-01 0.000E+00 0.000E+00 1.000E+00
   2 C    4.663  -2.692   4.924
   3 C    6.995   1.346   4.924
   4 C    9.327   5.385   4.924
   5 C    6.995  -6.731   4.924
   6 C    9.327  -2.692   4.924
   7 C   11.658   1.346   4.924
   8 C    2.332  -1.346   4.924
   9 C    4.663   2.692   4.924
  10 C    6.995   6.731   4.924
  11 C    4.663  -5.385   4.924
  12 C    6.995  -1.346   4.924
  13 C    9.327   2.692   4.924
  14 C    9.327  -5.385   4.924
  15 C   11.658  -1.346   4.924
 INFORMATION **** SET_MPP **** PCRYSTAL CALCULATION
 INFORMATION **** READM2 **** NEW DEFAULT: FOCK/KS MATRIX MIXING SET TO 30 %
 INFORMATION **** READM2 **** NEW DEFAULT: FULL DIRECT SCF MODE
 INFORMATION **** READM2 **** NEW DEFAULT: COULOMB BIPOLAR BUFFER SET TO 32 Mb
 INFORMATION **** READM2 **** NEW DEFAULT: EXCHANGE BIPOLAR BUFFER SET TO 32 Mb

 *******************************************************************************
 NEW DEFAULT: DFT INTEGRATION GRID INCREASED TO XLGRID
 NEW DEFAULT: DIIS ACCELERATOR ACTIVE
 USE KEYWORD NODIIS TO TURN IT OFF
 *******************************************************************************

 INFORMATION **** TOLINTEG **** COULOMB AND EXCHANGE SERIES TOLERANCES MODIFIED
 INFORMATION **** READM2 **** FULL DIRECT SCF (MONO AND BIEL INT) SELECTED
 INFORMATION **** MAXCYCLE **** MAX NUMBER OF SCF CYCLES SET TO         200
 INFORMATION **** TOLDEE **** SCF TOL ON TOTAL ENERGY SET TO           9
 *******************************************************************************
 N. OF ATOMS PER CELL        15  COULOMB OVERLAP TOL         (T1) 10**   -8
 NUMBER OF SHELLS           120  COULOMB PENETRATION TOL     (T2) 10**   -8
 NUMBER OF AO               270  EXCHANGE OVERLAP TOL        (T3) 10**   20
 N. OF ELECTRONS PER CELL    90  EXCHANGE PSEUDO OVP (F(G))  (T4) 10**   20
 CORE ELECTRONS PER CELL     30  EXCHANGE PSEUDO OVP (P(G))  (T5) 10**   20
 N. OF SYMMETRY OPERATORS     1  POLE ORDER IN MONO ZONE                  4
 *******************************************************************************
 TYPE OF CALCULATION :  RESTRICTED CLOSED SHELL
 KOHN-SHAM HAMILTONIAN

 (EXCHANGE)[CORRELATION] FUNCTIONAL:(PERDEW-BURKE-ERNZERHOF)[PERDEW-BURKE-ERNZERHOF]


 CAPPA:IS1  8;IS2  8;IS3  8; K PTS MONK NET 260; SYMMOPS:K SPACE   2;G SPACE   1

 *******************************************************************************
 MAX NUMBER OF SCF CYCLES     200  CONVERGENCE ON DELTAP        10**-19
 WEIGHT OF F(I) IN F(I+1)      30% CONVERGENCE ON ENERGY        10**- 9
 SHRINK. FACT.(MONKH.)    8  8  8  NUMBER OF K POINTS IN THE IBZ    260
 SHRINKING FACTOR(GILAT NET)   16  NUMBER OF K POINTS(GILAT NET)   2052
 *******************************************************************************
 *** K POINTS COORDINATES (OBLIQUE COORDINATES IN UNITS OF IS =  8)
   1-R(  0  0  0)   2-C(  1  0  0)   3-C(  2  0  0)   4-C(  3  0  0)
   5-R(  4  0  0)   6-C(  0  1  0)   7-C(  1  1  0)   8-C(  2  1  0)
   9-C(  3  1  0)  10-C(  4  1  0)  11-C(  5  1  0)  12-C(  6  1  0)
  13-C(  7  1  0)  14-C(  0  2  0)  15-C(  1  2  0)  16-C(  2  2  0)
  17-C(  3  2  0)  18-C(  4  2  0)  19-C(  5  2  0)  20-C(  6  2  0)
  21-C(  7  2  0)  22-C(  0  3  0)  23-C(  1  3  0)  24-C(  2  3  0)
  25-C(  3  3  0)  26-C(  4  3  0)  27-C(  5  3  0)  28-C(  6  3  0)
  29-C(  7  3  0)  30-R(  0  4  0)  31-C(  1  4  0)  32-C(  2  4  0)
  33-C(  3  4  0)  34-R(  4  4  0)  35-C(  0  0  1)  36-C(  1  0  1)
  37-C(  2  0  1)  38-C(  3  0  1)  39-C(  4  0  1)  40-C(  5  0  1)
  41-C(  6  0  1)  42-C(  7  0  1)  43-C(  0  1  1)  44-C(  1  1  1)
  45-C(  2  1  1)  46-C(  3  1  1)  47-C(  4  1  1)  48-C(  5  1  1)
  49-C(  6  1  1)  50-C(  7  1  1)  51-C(  0  2  1)  52-C(  1  2  1)
  53-C(  2  2  1)  54-C(  3  2  1)  55-C(  4  2  1)  56-C(  5  2  1)
  57-C(  6  2  1)  58-C(  7  2  1)  59-C(  0  3  1)  60-C(  1  3  1)
  61-C(  2  3  1)  62-C(  3  3  1)  63-C(  4  3  1)  64-C(  5  3  1)
  65-C(  6  3  1)  66-C(  7  3  1)  67-C(  0  4  1)  68-C(  1  4  1)
  69-C(  2  4  1)  70-C(  3  4  1)  71-C(  4  4  1)  72-C(  5  4  1)
  73-C(  6  4  1)  74-C(  7  4  1)  75-C(  0  5  1)  76-C(  1  5  1)
  77-C(  2  5  1)  78-C(  3  5  1)  79-C(  4  5  1)  80-C(  5  5  1)
  81-C(  6  5  1)  82-C(  7  5  1)  83-C(  0  6  1)  84-C(  1  6  1)
  85-C(  2  6  1)  86-C(  3  6  1)  87-C(  4  6  1)  88-C(  5  6  1)
  89-C(  6  6  1)  90-C(  7  6  1)  91-C(  0  7  1)  92-C(  1  7  1)
  93-C(  2  7  1)  94-C(  3  7  1)  95-C(  4  7  1)  96-C(  5  7  1)
  97-C(  6  7  1)  98-C(  7  7  1)  99-C(  0  0  2) 100-C(  1  0  2)
 101-C(  2  0  2) 102-C(  3  0  2) 103-C(  4  0  2) 104-C(  5  0  2)
 105-C(  6  0  2) 106-C(  7  0  2) 107-C(  0  1  2) 108-C(  1  1  2)
 109-C(  2  1  2) 110-C(  3  1  2) 111-C(  4  1  2) 112-C(  5  1  2)
 113-C(  6  1  2) 114-C(  7  1  2) 115-C(  0  2  2) 116-C(  1  2  2)
 117-C(  2  2  2) 118-C(  3  2  2) 119-C(  4  2  2) 120-C(  5  2  2)
 121-C(  6  2  2) 122-C(  7  2  2) 123-C(  0  3  2) 124-C(  1  3  2)
 125-C(  2  3  2) 126-C(  3  3  2) 127-C(  4  3  2) 128-C(  5  3  2)
 129-C(  6  3  2) 130-C(  7  3  2) 131-C(  0  4  2) 132-C(  1  4  2)
 133-C(  2  4  2) 134-C(  3  4  2) 135-C(  4  4  2) 136-C(  5  4  2)
 137-C(  6  4  2) 138-C(  7  4  2) 139-C(  0  5  2) 140-C(  1  5  2)
 141-C(  2  5  2) 142-C(  3  5  2) 143-C(  4  5  2) 144-C(  5  5  2)
 145-C(  6  5  2) 146-C(  7  5  2) 147-C(  0  6  2) 148-C(  1  6  2)
 149-C(  2  6  2) 150-C(  3  6  2) 151-C(  4  6  2) 152-C(  5  6  2)
 153-C(  6  6  2) 154-C(  7  6  2) 155-C(  0  7  2) 156-C(  1  7  2)
 157-C(  2  7  2) 158-C(  3  7  2) 159-C(  4  7  2) 160-C(  5  7  2)
 161-C(  6  7  2) 162-C(  7  7  2) 163-C(  0  0  3) 164-C(  1  0  3)
 165-C(  2  0  3) 166-C(  3  0  3) 167-C(  4  0  3) 168-C(  5  0  3)
 169-C(  6  0  3) 170-C(  7  0  3) 171-C(  0  1  3) 172-C(  1  1  3)
 173-C(  2  1  3) 174-C(  3  1  3) 175-C(  4  1  3) 176-C(  5  1  3)
 177-C(  6  1  3) 178-C(  7  1  3) 179-C(  0  2  3) 180-C(  1  2  3)
 181-C(  2  2  3) 182-C(  3  2  3) 183-C(  4  2  3) 184-C(  5  2  3)
 185-C(  6  2  3) 186-C(  7  2  3) 187-C(  0  3  3) 188-C(  1  3  3)
 189-C(  2  3  3) 190-C(  3  3  3) 191-C(  4  3  3) 192-C(  5  3  3)
 193-C(  6  3  3) 194-C(  7  3  3) 195-C(  0  4  3) 196-C(  1  4  3)
 197-C(  2  4  3) 198-C(  3  4  3) 199-C(  4  4  3) 200-C(  5  4  3)
 201-C(  6  4  3) 202-C(  7  4  3) 203-C(  0  5  3) 204-C(  1  5  3)
 205-C(  2  5  3) 206-C(  3  5  3) 207-C(  4  5  3) 208-C(  5  5  3)
 209-C(  6  5  3) 210-C(  7  5  3) 211-C(  0  6  3) 212-C(  1  6  3)
 213-C(  2  6  3) 214-C(  3  6  3) 215-C(  4  6  3) 216-C(  5  6  3)
 217-C(  6  6  3) 218-C(  7  6  3) 219-C(  0  7  3) 220-C(  1  7  3)
 221-C(  2  7  3) 222-C(  3  7  3) 223-C(  4  7  3) 224-C(  5  7  3)
 225-C(  6  7  3) 226-C(  7  7  3) 227-R(  0  0  4) 228-C(  1  0  4)
 229-C(  2  0  4) 230-C(  3  0  4) 231-R(  4  0  4) 232-C(  0  1  4)
 233-C(  1  1  4) 234-C(  2  1  4) 235-C(  3  1  4) 236-C(  4  1  4)
 237-C(  5  1  4) 238-C(  6  1  4) 239-C(  7  1  4) 240-C(  0  2  4)
 241-C(  1  2  4) 242-C(  2  2  4) 243-C(  3  2  4) 244-C(  4  2  4)
 245-C(  5  2  4) 246-C(  6  2  4) 247-C(  7  2  4) 248-C(  0  3  4)
 249-C(  1  3  4) 250-C(  2  3  4) 251-C(  3  3  4) 252-C(  4  3  4)
 253-C(  5  3  4) 254-C(  6  3  4) 255-C(  7  3  4) 256-R(  0  4  4)
 257-C(  1  4  4) 258-C(  2  4  4) 259-C(  3  4  4) 260-R(  4  4  4)

 DIRECT LATTICE VECTORS COMPON. (A.U.)     RECIP. LATTICE VECTORS COMPON. (A.U.) 
        X            Y            Z              X            Y            Z
    6.9949842  -12.1156680    0.0000000      0.4491208   -0.2593000    0.0000000
    6.9949842   12.1156680    0.0000000      0.4491208    0.2593000   -0.0000000
    0.0000000    0.0000000   16.4123433     -0.0000000    0.0000000    0.3828329

 DISK SPACE FOR EIGENVECTORS (FTN 10)    37324800 REALS

 SYMMETRY ADAPTION OF THE BLOCH FUNCTIONS DISABLED
 TTTTTTTTTTTTTTTTTTTTTTTTTTTTTT gordsh1     TELAPSE        2.71 TCPU        1.10

 MATRIX SIZE: P(G)  110802, F(G)   55581, P(G) IRR   55866, F(G) IRR   55866
 MAX G-VECTOR INDEX FOR 1- AND 2-ELECTRON INTEGRALS  27

 TTTTTTTTTTTTTTTTTTTTTTTTTTTTTT INPUT       TELAPSE        2.71 TCPU        1.11

 NEIGHBORS OF THE NON-EQUIVALENT ATOMS

 N = NUMBER OF NEIGHBORS AT DISTANCE R
    ATOM  N     R/ANG      R/AU   NEIGHBORS (ATOM LABELS AND CELL INDICES)
   1 C    2     1.4247     2.6924    8 C    0 0 0    9 C    0 0 0
   1 C    4     2.4677     4.6633    2 C    0 0 0    3 C    0 0 0    5 C   -1 0 0
                                     7 C   -1-1 0
   1 C    3     2.8495     5.3847   12 C    0 0 0   14 C   -1 0 0   15 C   -1-1 0
   1 C    6     3.7695     7.1233   10 C    0 0 0   10 C    0-1 0   11 C    0 0 0
                                    11 C   -1 0 0   13 C    0 0 0   13 C   -1-1 0
   1 C    6     4.2742     8.0771    4 C    0 0 0    4 C   -1-1 0    4 C    0-1 0
                                     6 C    0 0 0    6 C   -1-1 0    6 C   -1 0 0
   1 C    4     4.9354     9.3266    2 C   -1 0 0    3 C   -1-1 0    5 C    0 0 0
                                     7 C    0 0 0

   2 C    3     1.4247     2.6924    8 C    0 0 0   11 C    0 0 0   12 C    0 0 0
   2 C    5     2.4677     4.6633    1 C    0 0 0    3 C    0 0 0    4 C    0-1 0
                                     5 C    0 0 0    6 C    0 0 0
   2 C    3     2.8495     5.3847    9 C    0 0 0   10 C    0-1 0   14 C    0 0 0
   2 C    4     3.7695     7.1233   13 C    0 0 0   13 C    0-1 0   15 C    0 0 0
                                    15 C   -1-1 0
   2 C    3     4.2742     8.0771    7 C    0 0 0    7 C   -1-1 0    7 C    0-1 0
   2 C    5     4.9354     9.3266    1 C    1 0 0    3 C    0-1 0    4 C    0 0 0
                                     5 C   -1 0 0    6 C   -1-1 0

   3 C    3     1.4247     2.6924    9 C    0 0 0   12 C    0 0 0   13 C    0 0 0
   3 C    5     2.4677     4.6633    1 C    0 0 0    2 C    0 0 0    4 C    0 0 0
                                     6 C    0 0 0    7 C    0 0 0
   3 C    3     2.8495     5.3847    8 C    0 0 0   10 C    0 0 0   15 C    0 0 0
   3 C    4     3.7695     7.1233   11 C    0 0 0   11 C    0 1 0   14 C    0 0 0
                                    14 C   -1 0 0
   3 C    3     4.2742     8.0771    5 C    0 0 0    5 C   -1 0 0    5 C    0 1 0
   3 C    5     4.9354     9.3266    1 C    1 1 0    2 C    0 1 0    4 C    0-1 0
                                     6 C   -1 0 0    7 C   -1-1 0

   4 C    3     1.4247     2.6924   10 C    0 0 0   11 C    0 1 0   13 C    0 0 0
   4 C    4     2.4677     4.6633    2 C    0 1 0    3 C    0 0 0    5 C    0 1 0
                                     7 C    0 0 0
   4 C    2     2.8495     5.3847    8 C    0 1 0    9 C    0 0 0
   4 C    6     3.7695     7.1233   12 C    0 0 0   12 C    0 1 0   14 C   -1 0 0
                                    14 C    0 1 0   15 C    0 0 0   15 C   -1 0 0
   4 C    6     4.2742     8.0771    1 C    0 0 0    1 C    1 1 0    1 C    0 1 0
                                     6 C    0 0 0    6 C   -1 0 0    6 C    0 1 0
   4 C    4     4.9354     9.3266    2 C    0 0 0    3 C    0 1 0    5 C   -1 0 0
                                     7 C   -1 0 0

   5 C    2     1.4247     2.6924   11 C    0 0 0   14 C    0 0 0
   5 C    5     2.4677     4.6633    1 C    1 0 0    2 C    0 0 0    4 C    0-1 0
                                     6 C    0 0 0    7 C    0-1 0
   5 C    3     2.8495     5.3847    9 C    1 0 0   12 C    0 0 0   13 C    0-1 0
   5 C    6     3.7695     7.1233    8 C    0 0 0    8 C    1 0 0   10 C    1 0 0
                                    10 C    0-1 0   15 C    0 0 0   15 C    0-1 0
   5 C    3     4.2742     8.0771    3 C    0 0 0    3 C    1 0 0    3 C    0-1 0
   5 C    5     4.9354     9.3266    1 C    0 0 0    2 C    1 0 0    4 C    1 0 0
                                     6 C    0-1 0    7 C    0 0 0

   6 C    3     1.4247     2.6924   12 C    0 0 0   14 C    0 0 0   15 C    0 0 0
   6 C    4     2.4677     4.6633    2 C    0 0 0    3 C    0 0 0    5 C    0 0 0
                                     7 C    0 0 0
   6 C    3     2.8495     5.3847   10 C    1 0 0   11 C    0 0 0   13 C    0 0 0
   6 C    4     3.7695     7.1233    8 C    0 0 0    8 C    1 1 0    9 C    0 0 0
                                     9 C    1 0 0
   6 C    6     4.2742     8.0771    1 C    0 0 0    1 C    1 1 0    1 C    1 0 0
                                     4 C    0 0 0    4 C    1 0 0    4 C    0-1 0
   6 C    4     4.9354     9.3266    2 C    1 1 0    3 C    1 0 0    5 C    0 1 0
                                     7 C    0-1 0

   7 C    2     1.4247     2.6924   13 C    0 0 0   15 C    0 0 0
   7 C    5     2.4677     4.6633    1 C    1 1 0    3 C    0 0 0    4 C    0 0 0
                                     5 C    0 1 0    6 C    0 0 0
   7 C    3     2.8495     5.3847    8 C    1 1 0   11 C    0 1 0   12 C    0 0 0
   7 C    6     3.7695     7.1233    9 C    0 0 0    9 C    1 1 0   10 C    0 0 0
                                    10 C    1 0 0   14 C    0 0 0   14 C    0 1 0
   7 C    3     4.2742     8.0771    2 C    0 0 0    2 C    1 1 0    2 C    0 1 0
   7 C    5     4.9354     9.3266    1 C    0 0 0    3 C    1 1 0    4 C    1 0 0
                                     5 C    0 0 0    6 C    0 1 0

   8 C    2     1.4247     2.6924    1 C    0 0 0    2 C    0 0 0
   8 C    5     2.4677     4.6633    9 C    0 0 0   10 C    0-1 0   11 C    0 0 0
                                    12 C    0 0 0   15 C   -1-1 0
   8 C    3     2.8495     5.3847    3 C    0 0 0    4 C    0-1 0    7 C   -1-1 0
   8 C    4     3.7695     7.1233    5 C    0 0 0    5 C   -1 0 0    6 C    0 0 0
                                     6 C   -1-1 0
   8 C    6     4.2742     8.0771   13 C    0 0 0   13 C   -1-1 0   13 C    0-1 0
                                    14 C    0 0 0   14 C   -1-1 0   14 C   -1 0 0
   8 C    5     4.9354     9.3266    9 C    0-1 0   10 C    0 0 0   11 C   -1 0 0
                                    12 C   -1-1 0   15 C    0 0 0

   9 C    2     1.4247     2.6924    1 C    0 0 0    3 C    0 0 0
   9 C    5     2.4677     4.6633    8 C    0 0 0   10 C    0 0 0   12 C    0 0 0
                                    13 C    0 0 0   14 C   -1 0 0
   9 C    3     2.8495     5.3847    2 C    0 0 0    4 C    0 0 0    5 C   -1 0 0
   9 C    4     3.7695     7.1233    6 C    0 0 0    6 C   -1 0 0    7 C    0 0 0
                                     7 C   -1-1 0
   9 C    6     4.2742     8.0771   11 C    0 0 0   11 C   -1 0 0   11 C    0 1 0
                                    15 C    0 0 0   15 C   -1-1 0   15 C   -1 0 0
   9 C    5     4.9354     9.3266    8 C    0 1 0   10 C    0-1 0   12 C   -1 0 0
                                    13 C   -1-1 0   14 C    0 0 0

  10 C    1     1.4247     2.6924    4 C    0 0 0
  10 C    6     2.4677     4.6633    8 C    0 1 0    9 C    0 0 0   11 C    0 1 0
                                    13 C    0 0 0   14 C   -1 0 0   15 C   -1 0 0
  10 C    3     2.8495     5.3847    2 C    0 1 0    3 C    0 0 0    6 C   -1 0 0
  10 C    6     3.7695     7.1233    1 C    0 0 0    1 C    0 1 0    5 C   -1 0 0
                                     5 C    0 1 0    7 C    0 0 0    7 C   -1 0 0
  10 C    3     4.2742     8.0771   12 C    0 0 0   12 C   -1 0 0   12 C    0 1 0
  10 C    6     4.9354     9.3266    8 C    0 0 0    9 C    0 1 0   11 C   -1 0 0
                                    13 C   -1 0 0   14 C    0 1 0   15 C    0 0 0

  11 C    3     1.4247     2.6924    2 C    0 0 0    4 C    0-1 0    5 C    0 0 0
  11 C    5     2.4677     4.6633    8 C    0 0 0   10 C    0-1 0   12 C    0 0 0
                                    13 C    0-1 0   14 C    0 0 0
  11 C    2     2.8495     5.3847    6 C    0 0 0    7 C    0-1 0
  11 C    4     3.7695     7.1233    1 C    0 0 0    1 C    1 0 0    3 C    0 0 0
                                     3 C    0-1 0
  11 C    6     4.2742     8.0771    9 C    0 0 0    9 C    1 0 0    9 C    0-1 0
                                    15 C    0 0 0   15 C   -1-1 0   15 C    0-1 0
  11 C    5     4.9354     9.3266    8 C    1 0 0   10 C    1 0 0   12 C    0-1 0
                                    13 C    0 0 0   14 C   -1-1 0

  12 C    3     1.4247     2.6924    2 C    0 0 0    3 C    0 0 0    6 C    0 0 0
  12 C    6     2.4677     4.6633    8 C    0 0 0    9 C    0 0 0   11 C    0 0 0
                                    13 C    0 0 0   14 C    0 0 0   15 C    0 0 0
  12 C    3     2.8495     5.3847    1 C    0 0 0    5 C    0 0 0    7 C    0 0 0
  12 C    2     3.7695     7.1233    4 C    0 0 0    4 C    0-1 0
  12 C    3     4.2742     8.0771   10 C    0 0 0   10 C    1 0 0   10 C    0-1 0
  12 C    6     4.9354     9.3266    8 C    1 1 0    9 C    1 0 0   11 C    0 1 0
                                    13 C    0-1 0   14 C   -1 0 0   15 C   -1-1 0

  13 C    3     1.4247     2.6924    3 C    0 0 0    4 C    0 0 0    7 C    0 0 0
  13 C    5     2.4677     4.6633    9 C    0 0 0   10 C    0 0 0   11 C    0 1 0
                                    12 C    0 0 0   15 C    0 0 0
  13 C    2     2.8495     5.3847    5 C    0 1 0    6 C    0 0 0
  13 C    4     3.7695     7.1233    1 C    0 0 0    1 C    1 1 0    2 C    0 0 0
                                     2 C    0 1 0
  13 C    6     4.2742     8.0771    8 C    0 0 0    8 C    1 1 0    8 C    0 1 0
                                    14 C    0 0 0   14 C   -1 0 0   14 C    0 1 0
  13 C    5     4.9354     9.3266    9 C    1 1 0   10 C    1 0 0   11 C    0 0 0
                                    12 C    0 1 0   15 C   -1 0 0

  14 C    2     1.4247     2.6924    5 C    0 0 0    6 C    0 0 0
  14 C    5     2.4677     4.6633    9 C    1 0 0   10 C    1 0 0   11 C    0 0 0
                                    12 C    0 0 0   15 C    0 0 0
  14 C    2     2.8495     5.3847    1 C    1 0 0    2 C    0 0 0
  14 C    6     3.7695     7.1233    3 C    0 0 0    3 C    1 0 0    4 C    1 0 0
                                     4 C    0-1 0    7 C    0 0 0    7 C    0-1 0
  14 C    6     4.2742     8.0771    8 C    0 0 0    8 C    1 1 0    8 C    1 0 0
                                    13 C    0 0 0   13 C    1 0 0   13 C    0-1 0
  14 C    5     4.9354     9.3266    9 C    0 0 0   10 C    0-1 0   11 C    1 1 0
                                    12 C    1 0 0   15 C    0-1 0

  15 C    2     1.4247     2.6924    6 C    0 0 0    7 C    0 0 0
  15 C    5     2.4677     4.6633    8 C    1 1 0   10 C    1 0 0   12 C    0 0 0
                                    13 C    0 0 0   14 C    0 0 0
  15 C    2     2.8495     5.3847    1 C    1 1 0    3 C    0 0 0
  15 C    6     3.7695     7.1233    2 C    0 0 0    2 C    1 1 0    4 C    0 0 0
                                     4 C    1 0 0    5 C    0 0 0    5 C    0 1 0
  15 C    6     4.2742     8.0771    9 C    0 0 0    9 C    1 1 0    9 C    1 0 0
                                    11 C    0 0 0   11 C    1 1 0   11 C    0 1 0
  15 C    5     4.9354     9.3266    8 C    0 0 0   10 C    0 0 0   12 C    1 1 0
                                    13 C    1 0 0   14 C    0 1 0


 SYMMETRY ALLOWED INTERNAL DEGREE(S) OF FREEDOM:  42
 TTTTTTTTTTTTTTTTTTTTTTTTTTTTTT SYMM        TELAPSE        2.72 TCPU        1.11
 TTTTTTTTTTTTTTTTTTTTTTTTTTTTTT INT_SCREEN  TELAPSE        2.72 TCPU        1.11
 INFORMATION **** EXCBUF **** EXCH. BIPO BUFFER: WORDS USED =           0

 DFT PARAMETERS

     ATOM       ELECTRONS   NET CHARGE   R(ANGSTROM)
   1   6  C       6.0000      0.0000     0.77000000

 SIZE OF GRID=     504293
 TTTTTTTTTTTTTTTTTTTTTTTTTTTTTT MAKE_GRID2  TELAPSE        2.99 TCPU        1.39
 BECKE WEIGHT FUNCTION
 RADSAFE =     2.00
 TOLERANCES - DENSITY:10**- 6; POTENTIAL:10**- 9; GRID WGT:10**-14

 RADIAL INTEGRATION  - INTERVALS (POINTS,UPPER LIMIT):            1( 75,  4.0*R)

 ANGULAR INTEGRATION - INTERVALS (ACCURACY LEVEL [N. POINTS] UPPER LIMIT):
  1(  4[  86]   0.2)  2(  8[ 194]   0.5)  3( 12[ 350]   0.9)  4( 16[ 974]   3.5)
  5( 12[ 350]9999.0)
 TTTTTTTTTTTTTTTTTTTTTTTTTTTTTT INT_CALC    TELAPSE        3.02 TCPU        1.41
 EEEEEEEEEE INT_CALC TERMINATION  DATE 31 10 2022 TIME 17:24:26.8

 *******************************************************************************
 Final                                                                           
 CRYSTAL - SCF - TYPE OF CALCULATION :  RESTRICTED CLOSED SHELL
 *******************************************************************************

 CAPPA:IS1  8;IS2  8;IS3  8; K PTS MONK NET 260; SYMMOPS:K SPACE   2;G SPACE   1

 TTTTTTTTTTTTTTTTTTTTTTTTTTTTTT SDIK        TELAPSE        3.08 TCPU        1.47

 AAAAAAAAAAAAAAAAAAAAAAAAAAAAAAAAAAAAAAAAAAAAAAAAAAAAAAAAAAAAAAAAAAAAAAAAAAAAAAA
         ATOMIC WAVEFUNCTION(S)


 NUCLEAR CHARGE  6.0  SYMMETRY SPECIES            S    P
 N. ELECTRONS    6.0  NUMBER OF PRIMITIVE GTOS   10    6
                      NUMBER OF CONTRACTED GTOS   4    3
                      NUMBER OF CLOSED SHELLS     2    0
                      OPEN SHELL OCCUPATION       0    2

  ZNUC SCFIT  TOTAL HF ENERGY   KINETIC ENERGY   VIRIAL THEOREM ACCURACY
   6.0  10   -3.768111494E+01  3.771190961E+01 -1.999183423E+00  3.4E-06

 AAAAAAAAAAAAAAAAAAAAAAAAAAAAAAAAAAAAAAAAAAAAAAAAAAAAAAAAAAAAAAAAAAAAAAAAAAAAAAA

 CHARGE NORMALIZATION FACTOR   1.00000000
 TOTAL ATOMIC CHARGES:
   6.0000000   6.0000000   6.0000000   6.0000000   6.0000000   6.0000000
   6.0000000   6.0000000   6.0000000   6.0000000   6.0000000   6.0000000
   6.0000000   6.0000000   6.0000000
 TTTTTTTTTTTTTTTTTTTTTTTTTTTTTT MOQGAD      TELAPSE        3.09 TCPU        1.48
 TTTTTTTTTTTTTTTTTTTTTTTTTTTTTT SHELLXN     TELAPSE        3.71 TCPU        2.10
 TTTTTTTTTTTTTTTTTTTTTTTTTTTTTT MONMO3      TELAPSE        3.83 TCPU        2.22
 NUMERICALLY INTEGRATED DENSITY     89.9998015362
 TTTTTTTTTTTTTTTTTTTTTTTTTTTTTT NUMDFT      TELAPSE        3.98 TCPU        2.37
 CYC   0 ETOT(AU) -5.736301182494E+02 DETOT -5.74E+02 tst  0.00E+00 PX  1.00E+00
 TTTTTTTTTTTTTTTTTTTTTTTTTTTTTT DIIS        TELAPSE        4.00 TCPU        2.38
 TTTTTTTTTTTTTTTTTTTTTTTTTTTTTT FDIK        TELAPSE        4.18 TCPU        2.57
 POSSIBLY CONDUCTING STATE - EFERMI(AU) -2.3093075E-01 (RES. CHARGE  1.85E-13;IT. 12)
 TTTTTTTTTTTTTTTTTTTTTTTTTTTTTT PDIG        TELAPSE        4.28 TCPU        2.67
 CHARGE NORMALIZATION FACTOR   1.00000000
 TOTAL ATOMIC CHARGES:
   6.0717970   6.0520843   6.0521120   6.1676812   6.0956523   6.0541649
   6.0957924   5.9319425   5.9318861   5.6677002   5.9591189   6.0246890
   5.9591237   5.9680352   5.9682203
 TTTTTTTTTTTTTTTTTTTTTTTTTTTTTT MOQGAD      TELAPSE        4.28 TCPU        2.67
 TTTTTTTTTTTTTTTTTTTTTTTTTTTTTT SHELLXN     TELAPSE        5.00 TCPU        3.38
 TTTTTTTTTTTTTTTTTTTTTTTTTTTTTT MONMO3      TELAPSE        5.14 TCPU        3.52
 NUMERICALLY INTEGRATED DENSITY     89.9998453316
 TTTTTTTTTTTTTTTTTTTTTTTTTTTTTT NUMDFT      TELAPSE        5.52 TCPU        3.90
 CYC   1 ETOT(AU) -5.703212751967E+02 DETOT  3.31E+00 tst  0.00E+00 PX  1.00E+00
 TTTTTTTTTTTTTTTTTTTTTTTTTTTTTT DIIS        TELAPSE        5.54 TCPU        3.92
 DIIS TEST: 0.79065E+00 AT SCF   CYCLE   1 - MIX   30 %
 TTTTTTTTTTTTTTTTTTTTTTTTTTTTTT FDIK        TELAPSE        5.71 TCPU        4.08
 POSSIBLY CONDUCTING STATE - EFERMI(AU) -1.8793542E-01 (RES. CHARGE  7.11E-15;IT. 12)
 TTTTTTTTTTTTTTTTTTTTTTTTTTTTTT PDIG        TELAPSE        5.81 TCPU        4.18
 CHARGE NORMALIZATION FACTOR   1.00000000
 TOTAL ATOMIC CHARGES:
   5.8402340   5.8130689   5.8129242   5.6679494   5.6892838   5.7465443
   5.6891648   6.2620861   6.2614310   7.5135679   5.9572599   5.8077849
   5.9570959   5.9911746   5.9904304
 TTTTTTTTTTTTTTTTTTTTTTTTTTTTTT MOQGAD      TELAPSE        5.81 TCPU        4.18
 TTTTTTTTTTTTTTTTTTTTTTTTTTTTTT SHELLXN     TELAPSE        6.52 TCPU        4.89
 TTTTTTTTTTTTTTTTTTTTTTTTTTTTTT MONMO3      TELAPSE        6.66 TCPU        5.04
 NUMERICALLY INTEGRATED DENSITY     89.9998085100
 TTTTTTTTTTTTTTTTTTTTTTTTTTTTTT NUMDFT      TELAPSE        6.92 TCPU        5.29
 CYC   2 ETOT(AU) -5.698368854231E+02 DETOT  4.84E-01 tst  3.70E-02 PX  3.11E-01
 TTTTTTTTTTTTTTTTTTTTTTTTTTTTTT DIIS        TELAPSE        6.94 TCPU        5.31
 DIIS TEST: 0.47145E+01 AT SCF   CYCLE   2 - DIIS ACTIVE - HISTORY:     2 CYCLES
 TTTTTTTTTTTTTTTTTTTTTTTTTTTTTT FDIK        TELAPSE        7.12 TCPU        5.49
 POSSIBLY CONDUCTING STATE - EFERMI(AU) -1.5535648E-01 (RES. CHARGE  1.84E-11;IT.  8)
 TTTTTTTTTTTTTTTTTTTTTTTTTTTTTT PDIG        TELAPSE        7.21 TCPU        5.58
 CHARGE NORMALIZATION FACTOR   1.00000000
 TOTAL ATOMIC CHARGES:
   6.2644742   5.9039438   5.9040540   5.8492958   6.6013981   5.9341980
   6.6012976   5.9374835   5.9384259   5.1263837   5.9867396   5.9719732
   5.9868341   5.9968007   5.9966977
 TTTTTTTTTTTTTTTTTTTTTTTTTTTTTT MOQGAD      TELAPSE        7.22 TCPU        5.58
 TTTTTTTTTTTTTTTTTTTTTTTTTTTTTT SHELLXN     TELAPSE        7.93 TCPU        6.29
 TTTTTTTTTTTTTTTTTTTTTTTTTTTTTT MONMO3      TELAPSE        8.07 TCPU        6.44
 NUMERICALLY INTEGRATED DENSITY     89.9998107967
 TTTTTTTTTTTTTTTTTTTTTTTTTTTTTT NUMDFT      TELAPSE        8.33 TCPU        6.69
 CYC   3 ETOT(AU) -5.700310823352E+02 DETOT -1.94E-01 tst  8.44E-02 PX  3.03E-01
 TTTTTTTTTTTTTTTTTTTTTTTTTTTTTT DIIS        TELAPSE        8.35 TCPU        6.71
 DIIS TEST: 0.33298E+01 AT SCF   CYCLE   3 - DIIS ACTIVE - HISTORY:     3 CYCLES
 TTTTTTTTTTTTTTTTTTTTTTTTTTTTTT FDIK        TELAPSE        8.52 TCPU        6.89
 POSSIBLY CONDUCTING STATE - EFERMI(AU) -1.6239723E-01 (RES. CHARGE  9.96E-10;IT. 12)
 TTTTTTTTTTTTTTTTTTTTTTTTTTTTTT PDIG        TELAPSE        8.62 TCPU        6.99
 CHARGE NORMALIZATION FACTOR   1.00000000
 TOTAL ATOMIC CHARGES:
   5.9614478   5.9913713   5.9914244   6.0095815   5.9160548   6.0032595
   5.9159725   6.0326774   6.0328416   5.8745301   6.0368409   6.0684481
   6.0369234   6.0637346   6.0648921
 TTTTTTTTTTTTTTTTTTTTTTTTTTTTTT MOQGAD      TELAPSE        8.62 TCPU        6.99
 TTTTTTTTTTTTTTTTTTTTTTTTTTTTTT SHELLXN     TELAPSE        9.33 TCPU        7.70
 TTTTTTTTTTTTTTTTTTTTTTTTTTTTTT MONMO3      TELAPSE        9.48 TCPU        7.84
 NUMERICALLY INTEGRATED DENSITY     89.9998112617
 TTTTTTTTTTTTTTTTTTTTTTTTTTTTTT NUMDFT      TELAPSE        9.73 TCPU        8.10
 CYC   4 ETOT(AU) -5.704152006020E+02 DETOT -3.84E-01 tst  7.39E-03 PX  1.72E-01
 TTTTTTTTTTTTTTTTTTTTTTTTTTTTTT DIIS        TELAPSE        9.75 TCPU        8.11
 DIIS TEST: 0.14215E+00 AT SCF   CYCLE   4 - DIIS ACTIVE - HISTORY:     4 CYCLES
 TTTTTTTTTTTTTTTTTTTTTTTTTTTTTT FDIK        TELAPSE        9.93 TCPU        8.29
 POSSIBLY CONDUCTING STATE - EFERMI(AU) -1.7937191E-01 (RES. CHARGE  2.77E-13;IT. 16)
 TTTTTTTTTTTTTTTTTTTTTTTTTTTTTT PDIG        TELAPSE       10.03 TCPU        8.39
 CHARGE NORMALIZATION FACTOR   1.00000000
 TOTAL ATOMIC CHARGES:
   6.2328861   5.9779861   5.9778793   6.0065859   6.2372122   5.9368752
   6.2368997   5.9201560   5.9199771   6.1426496   5.9174078   5.9329971
   5.9171853   5.8232342   5.8200686
 TTTTTTTTTTTTTTTTTTTTTTTTTTTTTT MOQGAD      TELAPSE       10.03 TCPU        8.39
 TTTTTTTTTTTTTTTTTTTTTTTTTTTTTT SHELLXN     TELAPSE       10.74 TCPU        9.10
 TTTTTTTTTTTTTTTTTTTTTTTTTTTTTT MONMO3      TELAPSE       10.89 TCPU        9.24
 NUMERICALLY INTEGRATED DENSITY     89.9998185859
 TTTTTTTTTTTTTTTTTTTTTTTTTTTTTT NUMDFT      TELAPSE       11.24 TCPU        9.60
 CYC   5 ETOT(AU) -5.703988619678E+02 DETOT  1.63E-02 tst  1.81E-03 PX  6.29E-02
 TTTTTTTTTTTTTTTTTTTTTTTTTTTTTT DIIS        TELAPSE       11.27 TCPU        9.62
 DIIS TEST: 0.31956E+00 AT SCF   CYCLE   5 - DIIS ACTIVE - HISTORY:     5 CYCLES
 TTTTTTTTTTTTTTTTTTTTTTTTTTTTTT FDIK        TELAPSE       11.45 TCPU        9.80
 POSSIBLY CONDUCTING STATE - EFERMI(AU) -1.8171548E-01 (RES. CHARGE  2.57E-10;IT. 16)
 TTTTTTTTTTTTTTTTTTTTTTTTTTTTTT PDIG        TELAPSE       11.55 TCPU        9.90
 CHARGE NORMALIZATION FACTOR   1.00000000
 TOTAL ATOMIC CHARGES:
   5.9813953   5.9579845   5.9581317   5.9632562   6.0976528   5.9713113
   6.0986572   6.0338048   6.0336975   5.9702397   5.9400280   5.9666869
   5.9401547   6.0419263   6.0450732
 TTTTTTTTTTTTTTTTTTTTTTTTTTTTTT MOQGAD      TELAPSE       11.55 TCPU        9.90
 TTTTTTTTTTTTTTTTTTTTTTTTTTTTTT SHELLXN     TELAPSE       12.26 TCPU       10.61
 TTTTTTTTTTTTTTTTTTTTTTTTTTTTTT MONMO3      TELAPSE       12.40 TCPU       10.76
 NUMERICALLY INTEGRATED DENSITY     89.9998199249
 TTTTTTTTTTTTTTTTTTTTTTTTTTTTTT NUMDFT      TELAPSE       12.76 TCPU       11.12
 CYC   6 ETOT(AU) -5.704284575442E+02 DETOT -2.96E-02 tst  8.06E-04 PX  3.61E-02
 TTTTTTTTTTTTTTTTTTTTTTTTTTTTTT DIIS        TELAPSE       12.79 TCPU       11.14
 DIIS TEST: 0.49545E-01 AT SCF   CYCLE   6 - DIIS ACTIVE - HISTORY:     6 CYCLES
 TTTTTTTTTTTTTTTTTTTTTTTTTTTTTT FDIK        TELAPSE       12.95 TCPU       11.30
 POSSIBLY CONDUCTING STATE - EFERMI(AU) -1.7964623E-01 (RES. CHARGE  1.49E-12;IT. 12)
 TTTTTTTTTTTTTTTTTTTTTTTTTTTTTT PDIG        TELAPSE       13.05 TCPU       11.40
 CHARGE NORMALIZATION FACTOR   1.00000000
 TOTAL ATOMIC CHARGES:
   6.0431855   5.9732238   5.9732002   5.9817239   6.0416340   5.9568985
   6.0404304   6.0340088   6.0349258   6.0174159   6.0089341   5.9844213
   6.0085735   5.9523877   5.9490367
 TTTTTTTTTTTTTTTTTTTTTTTTTTTTTT MOQGAD      TELAPSE       13.06 TCPU       11.41
 TTTTTTTTTTTTTTTTTTTTTTTTTTTTTT SHELLXN     TELAPSE       13.77 TCPU       12.11
 TTTTTTTTTTTTTTTTTTTTTTTTTTTTTT MONMO3      TELAPSE       13.91 TCPU       12.26
 NUMERICALLY INTEGRATED DENSITY     89.9998178355
 TTTTTTTTTTTTTTTTTTTTTTTTTTTTTT NUMDFT      TELAPSE       14.17 TCPU       12.51
 CYC   7 ETOT(AU) -5.704334012509E+02 DETOT -4.94E-03 tst  1.88E-04 PX  1.79E-02
 TTTTTTTTTTTTTTTTTTTTTTTTTTTTTT DIIS        TELAPSE       14.18 TCPU       12.53
 DIIS TEST: 0.12804E-01 AT SCF   CYCLE   7 - DIIS ACTIVE - HISTORY:     7 CYCLES
 TTTTTTTTTTTTTTTTTTTTTTTTTTTTTT FDIK        TELAPSE       14.36 TCPU       12.71
 POSSIBLY CONDUCTING STATE - EFERMI(AU) -1.7969104E-01 (RES. CHARGE  8.83E-11;IT.  8)
 TTTTTTTTTTTTTTTTTTTTTTTTTTTTTT PDIG        TELAPSE       14.46 TCPU       12.81
 CHARGE NORMALIZATION FACTOR   1.00000000
 TOTAL ATOMIC CHARGES:
   6.0762083   5.9767822   5.9766895   5.9914874   6.0519896   5.9799768
   6.0538512   5.9503012   5.9476959   6.0675057   5.9591079   6.0005340
   5.9592206   6.0022067   6.0064431
 TTTTTTTTTTTTTTTTTTTTTTTTTTTTTT MOQGAD      TELAPSE       14.46 TCPU       12.81
 TTTTTTTTTTTTTTTTTTTTTTTTTTTTTT SHELLXN     TELAPSE       15.17 TCPU       13.52
 TTTTTTTTTTTTTTTTTTTTTTTTTTTTTT MONMO3      TELAPSE       15.33 TCPU       13.67
 NUMERICALLY INTEGRATED DENSITY     89.9998189398
 TTTTTTTTTTTTTTTTTTTTTTTTTTTTTT NUMDFT      TELAPSE       15.69 TCPU       14.04
 CYC   8 ETOT(AU) -5.704328558873E+02 DETOT  5.45E-04 tst  9.92E-05 PX  1.55E-02
 TTTTTTTTTTTTTTTTTTTTTTTTTTTTTT DIIS        TELAPSE       15.72 TCPU       14.06
 DIIS TEST: 0.15914E-01 AT SCF   CYCLE   8 - DIIS ACTIVE - HISTORY:     8 CYCLES
 TTTTTTTTTTTTTTTTTTTTTTTTTTTTTT FDIK        TELAPSE       15.88 TCPU       14.22
 POSSIBLY CONDUCTING STATE - EFERMI(AU) -1.7951205E-01 (RES. CHARGE  2.20E-12;IT. 10)
 TTTTTTTTTTTTTTTTTTTTTTTTTTTTTT PDIG        TELAPSE       15.98 TCPU       14.32
 CHARGE NORMALIZATION FACTOR   1.00000000
 TOTAL ATOMIC CHARGES:
   6.0314960   5.9777257   5.9779653   5.9936764   6.0481312   5.9730652
   6.0475144   6.0172598   6.0196451   6.0380255   5.9660892   5.9925041
   5.9662416   5.9761056   5.9745550
 TTTTTTTTTTTTTTTTTTTTTTTTTTTTTT MOQGAD      TELAPSE       15.98 TCPU       14.32
 TTTTTTTTTTTTTTTTTTTTTTTTTTTTTT SHELLXN     TELAPSE       16.69 TCPU       15.03
 TTTTTTTTTTTTTTTTTTTTTTTTTTTTTT MONMO3      TELAPSE       16.84 TCPU       15.18
 NUMERICALLY INTEGRATED DENSITY     89.9998183929
 TTTTTTTTTTTTTTTTTTTTTTTTTTTTTT NUMDFT      TELAPSE       17.09 TCPU       15.43
 CYC   9 ETOT(AU) -5.704348589158E+02 DETOT -2.00E-03 tst  4.68E-05 PX  9.26E-03
 TTTTTTTTTTTTTTTTTTTTTTTTTTTTTT DIIS        TELAPSE       17.11 TCPU       15.45
 DIIS TEST: 0.96472E-03 AT SCF   CYCLE   9 - DIIS ACTIVE - HISTORY:     9 CYCLES
 TTTTTTTTTTTTTTTTTTTTTTTTTTTTTT FDIK        TELAPSE       17.29 TCPU       15.63
 POSSIBLY CONDUCTING STATE - EFERMI(AU) -1.7968631E-01 (RES. CHARGE  5.47E-13;IT. 12)
 TTTTTTTTTTTTTTTTTTTTTTTTTTTTTT PDIG        TELAPSE       17.39 TCPU       15.73
 CHARGE NORMALIZATION FACTOR   1.00000000
 TOTAL ATOMIC CHARGES:
   6.0313627   5.9744555   5.9741279   5.9886850   6.0389949   5.9688058
   6.0401051   6.0116293   6.0079981   6.0425095   5.9815088   5.9870891
   5.9810684   5.9844890   5.9871710
 TTTTTTTTTTTTTTTTTTTTTTTTTTTTTT MOQGAD      TELAPSE       17.39 TCPU       15.73
 TTTTTTTTTTTTTTTTTTTTTTTTTTTTTT SHELLXN     TELAPSE       18.10 TCPU       16.44
 TTTTTTTTTTTTTTTTTTTTTTTTTTTTTT MONMO3      TELAPSE       18.25 TCPU       16.58
 NUMERICALLY INTEGRATED DENSITY     89.9998181848
 TTTTTTTTTTTTTTTTTTTTTTTTTTTTTT NUMDFT      TELAPSE       18.50 TCPU       16.84
 CYC  10 ETOT(AU) -5.704349439247E+02 DETOT -8.50E-05 tst  2.70E-06 PX  2.89E-03
 TTTTTTTTTTTTTTTTTTTTTTTTTTTTTT DIIS        TELAPSE       18.52 TCPU       16.86
 DIIS TEST: 0.23273E-03 AT SCF   CYCLE  10 - DIIS ACTIVE - HISTORY:    10 CYCLES
 TTTTTTTTTTTTTTTTTTTTTTTTTTTTTT FDIK        TELAPSE       18.71 TCPU       17.04
 POSSIBLY CONDUCTING STATE - EFERMI(AU) -1.7969848E-01 (RES. CHARGE  2.10E-11;IT.  8)
 TTTTTTTTTTTTTTTTTTTTTTTTTTTTTT PDIG        TELAPSE       18.80 TCPU       17.14
 CHARGE NORMALIZATION FACTOR   1.00000000
 TOTAL ATOMIC CHARGES:
   6.0406139   5.9735307   5.9740959   5.9841683   6.0365568   5.9685703
   6.0345055   6.0097173   6.0157555   6.0446441   5.9789966   5.9902994
   5.9793614   5.9875738   5.9816105
 TTTTTTTTTTTTTTTTTTTTTTTTTTTTTT MOQGAD      TELAPSE       18.80 TCPU       17.14
 TTTTTTTTTTTTTTTTTTTTTTTTTTTTTT SHELLXN     TELAPSE       19.51 TCPU       17.85
 TTTTTTTTTTTTTTTTTTTTTTTTTTTTTT MONMO3      TELAPSE       19.66 TCPU       17.99
 NUMERICALLY INTEGRATED DENSITY     89.9998182355
 TTTTTTTTTTTTTTTTTTTTTTTTTTTTTT NUMDFT      TELAPSE       19.91 TCPU       18.25
 CYC  11 ETOT(AU) -5.704349464583E+02 DETOT -2.53E-06 tst  2.13E-06 PX  1.54E-03
 TTTTTTTTTTTTTTTTTTTTTTTTTTTTTT DIIS        TELAPSE       19.93 TCPU       18.27
 DIIS TEST: 0.21904E-03 AT SCF   CYCLE  11 - DIIS ACTIVE - HISTORY:    11 CYCLES
 TTTTTTTTTTTTTTTTTTTTTTTTTTTTTT FDIK        TELAPSE       20.12 TCPU       18.45
 POSSIBLY CONDUCTING STATE - EFERMI(AU) -1.7965274E-01 (RES. CHARGE  4.25E-11;IT. 10)
 TTTTTTTTTTTTTTTTTTTTTTTTTTTTTT PDIG        TELAPSE       20.21 TCPU       18.54
 CHARGE NORMALIZATION FACTOR   1.00000000
 TOTAL ATOMIC CHARGES:
   6.0332319   5.9740601   5.9738361   5.9836730   6.0366843   5.9687856
   6.0386115   6.0153468   6.0116909   6.0478714   5.9797164   5.9918576
   5.9795654   5.9797095   5.9853596
 TTTTTTTTTTTTTTTTTTTTTTTTTTTTTT MOQGAD      TELAPSE       20.21 TCPU       18.54
 TTTTTTTTTTTTTTTTTTTTTTTTTTTTTT SHELLXN     TELAPSE       20.92 TCPU       19.25
 TTTTTTTTTTTTTTTTTTTTTTTTTTTTTT MONMO3      TELAPSE       21.07 TCPU       19.40
 NUMERICALLY INTEGRATED DENSITY     89.9998181802
 TTTTTTTTTTTTTTTTTTTTTTTTTTTTTT NUMDFT      TELAPSE       21.32 TCPU       19.65
 CYC  12 ETOT(AU) -5.704349631559E+02 DETOT -1.67E-05 tst  2.99E-06 PX  1.22E-03
 TTTTTTTTTTTTTTTTTTTTTTTTTTTTTT DIIS        TELAPSE       21.34 TCPU       19.67
 DIIS TEST: 0.82121E-04 AT SCF   CYCLE  12 - DIIS ACTIVE - HISTORY:    12 CYCLES
 TTTTTTTTTTTTTTTTTTTTTTTTTTTTTT FDIK        TELAPSE       21.52 TCPU       19.85
 POSSIBLY CONDUCTING STATE - EFERMI(AU) -1.7964219E-01 (RES. CHARGE  4.62E-10;IT.  8)
 TTTTTTTTTTTTTTTTTTTTTTTTTTTTTT PDIG        TELAPSE       21.62 TCPU       19.95
 CHARGE NORMALIZATION FACTOR   1.00000000
 TOTAL ATOMIC CHARGES:
   6.0315387   5.9740863   5.9740829   5.9855413   6.0384338   5.9688401
   6.0374791   6.0123532   6.0134297   6.0477460   5.9798188   5.9907006
   5.9796549   5.9845819   5.9817127
 TTTTTTTTTTTTTTTTTTTTTTTTTTTTTT MOQGAD      TELAPSE       21.62 TCPU       19.95
 TTTTTTTTTTTTTTTTTTTTTTTTTTTTTT SHELLXN     TELAPSE       22.33 TCPU       20.66
 TTTTTTTTTTTTTTTTTTTTTTTTTTTTTT MONMO3      TELAPSE       22.48 TCPU       20.80
 NUMERICALLY INTEGRATED DENSITY     89.9998181607
 TTTTTTTTTTTTTTTTTTTTTTTTTTTTTT NUMDFT      TELAPSE       22.73 TCPU       21.06
 CYC  13 ETOT(AU) -5.704349695212E+02 DETOT -6.37E-06 tst  1.20E-06 PX  6.95E-04
 TTTTTTTTTTTTTTTTTTTTTTTTTTTTTT DIIS        TELAPSE       22.75 TCPU       21.08
 DIIS TEST: 0.24958E-04 AT SCF   CYCLE  13 - DIIS ACTIVE - HISTORY:    13 CYCLES
 TTTTTTTTTTTTTTTTTTTTTTTTTTTTTT FDIK        TELAPSE       22.93 TCPU       21.25
 POSSIBLY CONDUCTING STATE - EFERMI(AU) -1.7964630E-01 (RES. CHARGE  9.83E-10;IT.  6)
 TTTTTTTTTTTTTTTTTTTTTTTTTTTTTT PDIG        TELAPSE       23.03 TCPU       21.35
 CHARGE NORMALIZATION FACTOR   1.00000000
 TOTAL ATOMIC CHARGES:
   6.0336099   5.9741582   5.9741730   5.9861533   6.0370791   5.9688164
   6.0371690   6.0130774   6.0130571   6.0470576   5.9793135   5.9900739
   5.9792315   5.9835201   5.9835102
 TTTTTTTTTTTTTTTTTTTTTTTTTTTTTT MOQGAD      TELAPSE       23.03 TCPU       21.35
 TTTTTTTTTTTTTTTTTTTTTTTTTTTTTT SHELLXN     TELAPSE       23.75 TCPU       22.07
 TTTTTTTTTTTTTTTTTTTTTTTTTTTTTT MONMO3      TELAPSE       23.89 TCPU       22.21
 NUMERICALLY INTEGRATED DENSITY     89.9998181769
 TTTTTTTTTTTTTTTTTTTTTTTTTTTTTT NUMDFT      TELAPSE       24.26 TCPU       22.58
 CYC  14 ETOT(AU) -5.704349721693E+02 DETOT -2.65E-06 tst  2.16E-07 PX  3.28E-04
 TTTTTTTTTTTTTTTTTTTTTTTTTTTTTT DIIS        TELAPSE       24.29 TCPU       22.61
 DIIS TEST: 0.62021E-06 AT SCF   CYCLE  14 - DIIS ACTIVE - HISTORY:    14 CYCLES
 TTTTTTTTTTTTTTTTTTTTTTTTTTTTTT FDIK        TELAPSE       24.48 TCPU       22.78
 POSSIBLY CONDUCTING STATE - EFERMI(AU) -1.7964411E-01 (RES. CHARGE  6.55E-10;IT.  6)
 TTTTTTTTTTTTTTTTTTTTTTTTTTTTTT PDIG        TELAPSE       24.58 TCPU       22.88
 CHARGE NORMALIZATION FACTOR   1.00000000
 TOTAL ATOMIC CHARGES:
   6.0336479   5.9742941   5.9742963   5.9860525   6.0370183   5.9688831
   6.0369943   6.0130046   6.0129732   6.0474527   5.9793081   5.9899444
   5.9792046   5.9835018   5.9834239
 TTTTTTTTTTTTTTTTTTTTTTTTTTTTTT MOQGAD      TELAPSE       24.58 TCPU       22.88
 TTTTTTTTTTTTTTTTTTTTTTTTTTTTTT SHELLXN     TELAPSE       25.29 TCPU       23.59
 TTTTTTTTTTTTTTTTTTTTTTTTTTTTTT MONMO3      TELAPSE       25.44 TCPU       23.74
 NUMERICALLY INTEGRATED DENSITY     89.9998181749
 TTTTTTTTTTTTTTTTTTTTTTTTTTTTTT NUMDFT      TELAPSE       25.82 TCPU       24.11
 CYC  15 ETOT(AU) -5.704349721702E+02 DETOT -8.73E-10 tst  2.98E-09 PX  5.43E-05
 TTTTTTTTTTTTTTTTTTTTTTTTTTTTTT DIIS        TELAPSE       25.85 TCPU       24.15
 DIIS TEST: 0.61248E-07 AT SCF   CYCLE  15 - DIIS ACTIVE - HISTORY:    15 CYCLES
 TTTTTTTTTTTTTTTTTTTTTTTTTTTTTT FDIK        TELAPSE       26.10 TCPU       24.36
 POSSIBLY CONDUCTING STATE - EFERMI(AU) -1.7964426E-01 (RES. CHARGE  4.26E-14;IT.  6)
 TTTTTTTTTTTTTTTTTTTTTTTTTTTTTT PDIG        TELAPSE       26.20 TCPU       24.46
 CHARGE NORMALIZATION FACTOR   1.00000000
 TOTAL ATOMIC CHARGES:
   6.0336435   5.9742293   5.9742598   5.9860843   6.0369210   5.9688562
   6.0370136   6.0129447   6.0130151   6.0475393   5.9793018   5.9899965
   5.9792346   5.9835029   5.9834572
 TTTTTTTTTTTTTTTTTTTTTTTTTTTTTT MOQGAD      TELAPSE       26.20 TCPU       24.46
 TTTTTTTTTTTTTTTTTTTTTTTTTTTTTT SHELLXN     TELAPSE       26.91 TCPU       25.17
 +++ ENERGIES IN A.U. +++
 ::: EXT EL-POLE                                  -8.0339995631024E+02
 ::: EXT EL-SPHEROPOLE                             6.2346132569623E+00
 ::: BIELET ZONE E-E                               1.1950114675761E+03
 ::: TOTAL E-E                                     3.9784612452282E+02
 ::: TOTAL E-N + N-E                              -1.5744023113693E+03
 ::: TOTAL N-N                                     1.1938506456101E+02
 ::: KINETIC ENERGY                                5.6686923835436E+02
 ::: PSEUDO TOTAL   ENERGY                        -4.9030188393113E+02
 ::: VIRIAL COEFFICIENT                            1.0724266420158E+00
 TTTTTTTTTTTTTTTTTTTTTTTTTTTTTT MONMO3      TELAPSE       27.06 TCPU       25.32
 NUMERICALLY INTEGRATED DENSITY     89.9998181741
 TTTTTTTTTTTTTTTTTTTTTTTTTTTTTT NUMDFT      TELAPSE       27.31 TCPU       25.57
 CYC  16 ETOT(AU) -5.704349721431E+02 DETOT  2.71E-08 tst  3.56E-10 PX  5.43E-05

 == SCF ENDED - CONVERGENCE ON ENERGY      E(AU) -5.7043497214309E+02 CYCLES  16


 ENERGY EXPRESSION=HARTREE+FOCK EXCH*0.00000+(PBE        EXCH)*1.00000+PBE        CORR


 TOTAL ENERGY(DFT)(AU)( 16) -5.7043497214309E+02 DE 2.7E-08 tester 3.6E-10
 TTTTTTTTTTTTTTTTTTTTTTTTTTTTTT EDFT        TELAPSE       27.31 TCPU       25.57
 EIGENVECTORS IN FORTRAN UNIT  8
 TTTTTTTTTTTTTTTTTTTTTTTTTTTTTT END         TELAPSE       27.46 TCPU       25.72
 EEEEEEEEEE TERMINATION  DATE 31 10 2022 TIME 17:24:51.2
NODE    0 CPU TIME =        25.715
    TOTAL CPU TIME =      3325.983
Note: The following floating-point exceptions are signalling: IEEE_UNDERFLOW_FLAG IEEE_DENORMAL
Note: The following floating-point exceptions are signalling: IEEE_UNDERFLOW_FLAG IEEE_DENORMAL
Note: The following floating-point exceptions are signalling: IEEE_UNDERFLOW_FLAG IEEE_DENORMAL
Note: The following floating-point exceptions are signalling: IEEE_UNDERFLOW_FLAG IEEE_DENORMAL
Note: The following floating-point exceptions are signalling: IEEE_UNDERFLOW_FLAG IEEE_DENORMAL
Note: The following floating-point exceptions are signalling: IEEE_UNDERFLOW_FLAG IEEE_DENORMAL
Note: The following floating-point exceptions are signalling: IEEE_UNDERFLOW_FLAG IEEE_DENORMAL
Note: The following floating-point exceptions are signalling: IEEE_UNDERFLOW_FLAG IEEE_DENORMAL
Note: The following floating-point exceptions are signalling: IEEE_UNDERFLOW_FLAG IEEE_DENORMAL
Note: The following floating-point exceptions are signalling: IEEE_UNDERFLOW_FLAG IEEE_DENORMAL
Note: The following floating-point exceptions are signalling: IEEE_UNDERFLOW_FLAG IEEE_DENORMAL
Note: The following floating-point exceptions are signalling: IEEE_UNDERFLOW_FLAG IEEE_DENORMAL
Note: The following floating-point exceptions are signalling: IEEE_UNDERFLOW_FLAG IEEE_DENORMAL
Note: The following floating-point exceptions are signalling: IEEE_UNDERFLOW_FLAG IEEE_DENORMAL
Note: The following floating-point exceptions are signalling: IEEE_UNDERFLOW_FLAG IEEE_DENORMAL
Note: The following floating-point exceptions are signalling: IEEE_UNDERFLOW_FLAG IEEE_DENORMAL
Note: The following floating-point exceptions are signalling: IEEE_UNDERFLOW_FLAG IEEE_DENORMAL
Note: The following floating-point exceptions are signalling: IEEE_UNDERFLOW_FLAG IEEE_DENORMAL
Note: The following floating-point exceptions are signalling: IEEE_UNDERFLOW_FLAG IEEE_DENORMAL
Note: The following floating-point exceptions are signalling: IEEE_UNDERFLOW_FLAG IEEE_DENORMAL
Note: The following floating-point exceptions are signalling: IEEE_UNDERFLOW_FLAG IEEE_DENORMAL
Note: The following floating-point exceptions are signalling: IEEE_UNDERFLOW_FLAG IEEE_DENORMAL
Note: The following floating-point exceptions are signalling: IEEE_UNDERFLOW_FLAG IEEE_DENORMAL
Note: The following floating-point exceptions are signalling: IEEE_UNDERFLOW_FLAG IEEE_DENORMAL
Note: The following floating-point exceptions are signalling: IEEE_UNDERFLOW_FLAG IEEE_DENORMAL
Note: The following floating-point exceptions are signalling: IEEE_UNDERFLOW_FLAG IEEE_DENORMAL
Note: The following floating-point exceptions are signalling: IEEE_UNDERFLOW_FLAG IEEE_DENORMAL
Note: The following floating-point exceptions are signalling: IEEE_UNDERFLOW_FLAG IEEE_DENORMAL
Note: The following floating-point exceptions are signalling: IEEE_UNDERFLOW_FLAG IEEE_DENORMAL
Note: The following floating-point exceptions are signalling: IEEE_UNDERFLOW_FLAG IEEE_DENORMAL
Note: The following floating-point exceptions are signalling: IEEE_UNDERFLOW_FLAG IEEE_DENORMAL
Note: The following floating-point exceptions are signalling: IEEE_UNDERFLOW_FLAG IEEE_DENORMAL
Note: The following floating-point exceptions are signalling: IEEE_UNDERFLOW_FLAG IEEE_DENORMAL
Note: The following floating-point exceptions are signalling: IEEE_UNDERFLOW_FLAG IEEE_DENORMAL
Note: The following floating-point exceptions are signalling: IEEE_UNDERFLOW_FLAG IEEE_DENORMAL
Note: The following floating-point exceptions are signalling: IEEE_UNDERFLOW_FLAG IEEE_DENORMAL
Note: The following floating-point exceptions are signalling: IEEE_UNDERFLOW_FLAG IEEE_DENORMAL
Note: The following floating-point exceptions are signalling: IEEE_UNDERFLOW_FLAG IEEE_DENORMAL
Note: The following floating-point exceptions are signalling: IEEE_UNDERFLOW_FLAG IEEE_DENORMAL
Note: The following floating-point exceptions are signalling: IEEE_UNDERFLOW_FLAG IEEE_DENORMAL
Note: The following floating-point exceptions are signalling: IEEE_UNDERFLOW_FLAG IEEE_DENORMAL
Note: The following floating-point exceptions are signalling: IEEE_UNDERFLOW_FLAG IEEE_DENORMAL
Note: The following floating-point exceptions are signalling: IEEE_UNDERFLOW_FLAG IEEE_DENORMAL
Note: The following floating-point exceptions are signalling: IEEE_UNDERFLOW_FLAG IEEE_DENORMAL
Note: The following floating-point exceptions are signalling: IEEE_UNDERFLOW_FLAG IEEE_DENORMAL
Note: The following floating-point exceptions are signalling: IEEE_UNDERFLOW_FLAG IEEE_DENORMAL
Note: The following floating-point exceptions are signalling: IEEE_UNDERFLOW_FLAG IEEE_DENORMAL
Note: The following floating-point exceptions are signalling: IEEE_UNDERFLOW_FLAG IEEE_DENORMAL
Note: The following floating-point exceptions are signalling: IEEE_UNDERFLOW_FLAG IEEE_DENORMAL
Note: The following floating-point exceptions are signalling: IEEE_UNDERFLOW_FLAG IEEE_DENORMAL
Note: The following floating-point exceptions are signalling: IEEE_UNDERFLOW_FLAG IEEE_DENORMAL
Note: The following floating-point exceptions are signalling: IEEE_UNDERFLOW_FLAG IEEE_DENORMAL
Note: The following floating-point exceptions are signalling: IEEE_UNDERFLOW_FLAG IEEE_DENORMAL
Note: The following floating-point exceptions are signalling: IEEE_UNDERFLOW_FLAG IEEE_DENORMAL
Note: The following floating-point exceptions are signalling: IEEE_UNDERFLOW_FLAG IEEE_DENORMAL
Note: The following floating-point exceptions are signalling: IEEE_UNDERFLOW_FLAG IEEE_DENORMAL
Note: The following floating-point exceptions are signalling: IEEE_UNDERFLOW_FLAG IEEE_DENORMAL
Note: The following floating-point exceptions are signalling: IEEE_UNDERFLOW_FLAG IEEE_DENORMAL
Note: The following floating-point exceptions are signalling: IEEE_UNDERFLOW_FLAG IEEE_DENORMAL
Note: The following floating-point exceptions are signalling: IEEE_UNDERFLOW_FLAG IEEE_DENORMAL
Note: The following floating-point exceptions are signalling: IEEE_UNDERFLOW_FLAG IEEE_DENORMAL
Note: The following floating-point exceptions are signalling: IEEE_UNDERFLOW_FLAG IEEE_DENORMAL
Note: The following floating-point exceptions are signalling: IEEE_UNDERFLOW_FLAG IEEE_DENORMAL
Note: The following floating-point exceptions are signalling: IEEE_UNDERFLOW_FLAG IEEE_DENORMAL
Note: The following floating-point exceptions are signalling: IEEE_UNDERFLOW_FLAG IEEE_DENORMAL
Note: The following floating-point exceptions are signalling: IEEE_UNDERFLOW_FLAG IEEE_DENORMAL
Note: The following floating-point exceptions are signalling: IEEE_UNDERFLOW_FLAG IEEE_DENORMAL
Note: The following floating-point exceptions are signalling: IEEE_UNDERFLOW_FLAG IEEE_DENORMAL
Note: The following floating-point exceptions are signalling: IEEE_UNDERFLOW_FLAG IEEE_DENORMAL
Note: The following floating-point exceptions are signalling: IEEE_UNDERFLOW_FLAG IEEE_DENORMAL
Note: The following floating-point exceptions are signalling: IEEE_UNDERFLOW_FLAG IEEE_DENORMAL
Note: The following floating-point exceptions are signalling: IEEE_UNDERFLOW_FLAG IEEE_DENORMAL
Note: The following floating-point exceptions are signalling: IEEE_UNDERFLOW_FLAG IEEE_DENORMAL
Note: The following floating-point exceptions are signalling: IEEE_UNDERFLOW_FLAG IEEE_DENORMAL
Note: The following floating-point exceptions are signalling: IEEE_UNDERFLOW_FLAG IEEE_DENORMAL
Note: The following floating-point exceptions are signalling: IEEE_UNDERFLOW_FLAG IEEE_DENORMAL
Note: The following floating-point exceptions are signalling: IEEE_UNDERFLOW_FLAG IEEE_DENORMAL
Note: The following floating-point exceptions are signalling: IEEE_UNDERFLOW_FLAG IEEE_DENORMAL
Note: The following floating-point exceptions are signalling: IEEE_UNDERFLOW_FLAG IEEE_DENORMAL
Note: The following floating-point exceptions are signalling: IEEE_UNDERFLOW_FLAG IEEE_DENORMAL
Note: The following floating-point exceptions are signalling: IEEE_UNDERFLOW_FLAG IEEE_DENORMAL
Note: The following floating-point exceptions are signalling: IEEE_UNDERFLOW_FLAG IEEE_DENORMAL
Note: The following floating-point exceptions are signalling: IEEE_UNDERFLOW_FLAG IEEE_DENORMAL
Note: The following floating-point exceptions are signalling: IEEE_UNDERFLOW_FLAG IEEE_DENORMAL
Note: The following floating-point exceptions are signalling: IEEE_UNDERFLOW_FLAG IEEE_DENORMAL
Note: The following floating-point exceptions are signalling: IEEE_UNDERFLOW_FLAG IEEE_DENORMAL
Note: The following floating-point exceptions are signalling: IEEE_UNDERFLOW_FLAG IEEE_DENORMAL
Note: The following floating-point exceptions are signalling: IEEE_UNDERFLOW_FLAG IEEE_DENORMAL
Note: The following floating-point exceptions are signalling: IEEE_UNDERFLOW_FLAG IEEE_DENORMAL
Note: The following floating-point exceptions are signalling: IEEE_UNDERFLOW_FLAG IEEE_DENORMAL
Note: The following floating-point exceptions are signalling: IEEE_UNDERFLOW_FLAG IEEE_DENORMAL
Note: The following floating-point exceptions are signalling: IEEE_UNDERFLOW_FLAG IEEE_DENORMAL
Note: The following floating-point exceptions are signalling: IEEE_UNDERFLOW_FLAG IEEE_DENORMAL
Note: The following floating-point exceptions are signalling: IEEE_UNDERFLOW_FLAG IEEE_DENORMAL
Note: The following floating-point exceptions are signalling: IEEE_UNDERFLOW_FLAG IEEE_DENORMAL
Note: The following floating-point exceptions are signalling: IEEE_UNDERFLOW_FLAG IEEE_DENORMAL
Note: The following floating-point exceptions are signalling: IEEE_UNDERFLOW_FLAG IEEE_DENORMAL
Note: The following floating-point exceptions are signalling: IEEE_UNDERFLOW_FLAG IEEE_DENORMAL
Note: The following floating-point exceptions are signalling: IEEE_UNDERFLOW_FLAG IEEE_DENORMAL
Note: The following floating-point exceptions are signalling: IEEE_UNDERFLOW_FLAG IEEE_DENORMAL
Note: The following floating-point exceptions are signalling: IEEE_UNDERFLOW_FLAG IEEE_DENORMAL
Note: The following floating-point exceptions are signalling: IEEE_UNDERFLOW_FLAG IEEE_DENORMAL
Note: The following floating-point exceptions are signalling: IEEE_UNDERFLOW_FLAG IEEE_DENORMAL
Note: The following floating-point exceptions are signalling: IEEE_UNDERFLOW_FLAG IEEE_DENORMAL
Note: The following floating-point exceptions are signalling: IEEE_UNDERFLOW_FLAG IEEE_DENORMAL
Note: The following floating-point exceptions are signalling: IEEE_UNDERFLOW_FLAG IEEE_DENORMAL
Note: The following floating-point exceptions are signalling: IEEE_UNDERFLOW_FLAG IEEE_DENORMAL
Note: The following floating-point exceptions are signalling: IEEE_UNDERFLOW_FLAG IEEE_DENORMAL
Note: The following floating-point exceptions are signalling: IEEE_UNDERFLOW_FLAG IEEE_DENORMAL
Note: The following floating-point exceptions are signalling: IEEE_UNDERFLOW_FLAG IEEE_DENORMAL
Note: The following floating-point exceptions are signalling: IEEE_UNDERFLOW_FLAG IEEE_DENORMAL
Note: The following floating-point exceptions are signalling: IEEE_UNDERFLOW_FLAG IEEE_DENORMAL
Note: The following floating-point exceptions are signalling: IEEE_UNDERFLOW_FLAG IEEE_DENORMAL
Note: The following floating-point exceptions are signalling: IEEE_UNDERFLOW_FLAG IEEE_DENORMAL
Note: The following floating-point exceptions are signalling: IEEE_UNDERFLOW_FLAG IEEE_DENORMAL
Note: The following floating-point exceptions are signalling: IEEE_UNDERFLOW_FLAG IEEE_DENORMAL
Note: The following floating-point exceptions are signalling: IEEE_UNDERFLOW_FLAG IEEE_DENORMAL
Note: The following floating-point exceptions are signalling: IEEE_UNDERFLOW_FLAG IEEE_DENORMAL
Note: The following floating-point exceptions are signalling: IEEE_UNDERFLOW_FLAG IEEE_DENORMAL
Note: The following floating-point exceptions are signalling: IEEE_UNDERFLOW_FLAG IEEE_DENORMAL
Note: The following floating-point exceptions are signalling: IEEE_UNDERFLOW_FLAG IEEE_DENORMAL
Note: The following floating-point exceptions are signalling: IEEE_UNDERFLOW_FLAG IEEE_DENORMAL
Note: The following floating-point exceptions are signalling: IEEE_UNDERFLOW_FLAG IEEE_DENORMAL
Note: The following floating-point exceptions are signalling: IEEE_UNDERFLOW_FLAG IEEE_DENORMAL
Note: The following floating-point exceptions are signalling: IEEE_UNDERFLOW_FLAG IEEE_DENORMAL
Note: The following floating-point exceptions are signalling: IEEE_UNDERFLOW_FLAG IEEE_DENORMAL
Note: The following floating-point exceptions are signalling: IEEE_UNDERFLOW_FLAG IEEE_DENORMAL
Note: The following floating-point exceptions are signalling: IEEE_UNDERFLOW_FLAG IEEE_DENORMAL
end_date Mon Oct 31 17:24:51 GMT 2022
 
TEMPORARY          SAVED (in /mnt/lustre/a2fs-work2/work/e05/e05/bcamino/quantum_computing/test_model)
fort.34            graphene_3v_N.gui 1311     Oct 31 17:24
fort.9             graphene_3v_N.f9  1358280  Oct 31 17:24
fort.98            graphene_3v_N.f98 3548955  Oct 31 17:24
 
Disk usage:<du -m>
403	/mnt/lustre/a2fs-work2/work/e05/e05/bcamino/quantum_computing/test_model/tmp_graphene_3v_N_
</du -m>
Filesystem                                          1K-blocks          Used     Available Use% Mounted on
10.253.102.2@o2ib1:10.253.102.3@o2ib1:/cls01097 3582178503216 1809160147752 1736823095800  52% /mnt/lustre/a2fs-work2
10.253.102.2@o2ib1:10.253.102.3@o2ib1:/cls01097 3582178503216 1809160147752 1736823095800  52% /mnt/lustre/a2fs-work2
