date:                Mon Oct 31 17:18:21 GMT 2022
hostname:            nid002533
system:              Linux nid002533 4.12.14-197.78_9.1.64-cray_shasta_c #1 SMP Wed Aug 25 14:56:40 UTC 2021 (4e2a900) x86_64 x86_64 x86_64 GNU/Linux
user:                bcamino
input:               /mnt/lustre/a2fs-work2/work/e05/e05/bcamino/quantum_computing/test_model/graphene_3v_E.d12
output:              /mnt/lustre/a2fs-work2/work/e05/e05/bcamino/quantum_computing/test_model/graphene_3v_E.out
executable script:   /work/e05/e05/bcamino/runCRYSTAL/Pcry_slurm
executable:          Pcrystal
Command:             srun --hint=nomultithread --distribution=block:block Pcrystal
Slurm JobID:         
temporary directory: /mnt/lustre/a2fs-work2/work/e05/e05/bcamino/quantum_computing/test_model/tmp_graphene_3v_E_      
input data /mnt/lustre/a2fs-work2/work/e05/e05/bcamino/quantum_computing/test_model/graphene_3v_E.d12
Final
EXTERNAL
SYMMREMO
END
6 8
0 0 6 2.0 1.0
  13575.349682      0.00022245814352
  2035.2333680      0.00172327382520
  463.22562359      0.00892557153140
  131.20019598      0.03572798450200
  42.853015891      0.11076259931000
  15.584185766      0.24295627626000
0 0 2 2.0 1.0
  6.2067138508      0.41440263448000
  2.5764896527      0.23744968655000
0 0 1 0.0 1.0
  0.4941102000      1.00000000000000
0 0 1 0.0 1.0
  0.1644071000      1.00000000000000
0 2 4 2.0 1.0
  34.697232244      0.00533336578050
  7.9582622826      0.03586410909200
  2.3780826883      0.14215873329000
  0.8143320818      0.34270471845000
0 2 1 0.0 1.0
  0.5662417100      1.00000000000000
0 2 1 0.0 1.0
  0.1973545000      1.00000000000000
0 3 1 0.0 1.0
  0.5791584200      1.00000000000000
99 0
ENDBS
DFT
PBE  
ENDDFT
TOLINTEG
8 8 8 8 16
SCFDIR
SHRINK
8 16  
MAXCYCLE
200
TOLDEE
9 
ENDSCF
input data /mnt/lustre/a2fs-work2/work/e05/e05/bcamino/quantum_computing/test_model/graphene_3v_E.gui
         128 PROCESSORS WORKING

         
 *******************************************************************************
 *                                                                             *
 *                               CRYSTAL17                                     *
 *                      public : 1.0.2 - March 1st, 2018 STFC/Archer2 build    *
 *                       HTTP://WWW.CRYSTAL.UNITO.IT                           *
 *                                                                             *
 *                              MAIN AUTHORS                                   *
 *                                                                             *
 *  R. DOVESI(1,11), V.R. SAUNDERS(2), C. ROETTI(1,11), R. ORLANDO(1,11),      *
 *  C.M. ZICOVICH-WILSON(1,3), F. PASCALE(4), B. CIVALLERI(1,11),              *
 *  K. DOLL(5), N.M. HARRISON(2,6), I.J. BUSH(7), Ph. D'ARCO(8),               *
 *  M. LLUNELL(9), M. CAUSA'(10), Y. NOEL(8), L. MASCHIO(1,11), A. ERBA(1,11)  *
 *  M. RE'RAT(14), S. CASASSA(1,11)                                            *
 *                                                                             *
 *        CONTRIBUTIONS TO THE CODE HAVE ALSO BEEN GIVEN BY                    *
 *                                                                             *
 *  M. FERRABONE(1,11), M. DE LA PIERRE(1,11), M. FERRERO(1,11),               *
 *  J. BAIMA(1,11), E. ALBANESE(1,11), M.F. PEINTINGER(12), R. BAST(13),       *
 *  B. KIRTMAN(15), V. LACIVITA(1,11), R. DEMICHELIS(1,16)                     *
 *  G. BRANDEBURG(17), S. SALUSTRO(1,11), G. SANSONE(1,11)                     *
 *  M.T. RUGGIERO(18)                                                          *
 *                                                                             *
 * (1) THEORETICAL CHEMISTRY GROUP - UNIVERSITA' DI TORINO - TORINO (ITALY)    *
 * (2) COMPUTATIONAL SCIENCE & ENGINEERING DEPARTMENT - STFC DARESBURY (UK)    *
 * (3) UNIVERSIDAD AUTONOMA DEL ESTADO DE MORELOS - CUERNAVACA (MEXICO)        *
 * (4) UNIVERSITE' DE LORRAINE - NANCY (FRANCE)                                *
 * (5) UNIVERSITAET STUTTGART- STUTTGART (GERMANY)                             *
 * (6) IMPERIAL COLLEGE - LONDON (UK)                                          *
 * (7) OXFORD E-RESEARCH CENTRE - OXFORD (UK)                                  *
 * (8) UPMC - SORBONNE UNIVERSITES - PARIS (FRANCE)                            *
 * (9) UNIVERSIDAD DE BARCELONA - BARCELONA (SPAIN)                            *
 *(10) UNIVERSITA' DI NAPOLI "FEDERICO II" - NAPOLI (ITALY)                    *
 *(11) NIS - NANOSTRUCTURED INTERFACES AND SURFACES - TORINO (ITALY)           *
 *(12) MPI FUER CHEMISCHE ENERGIEKONVERSION - MUELHEIM AN DER RUHR (GERMANY)   *
 *(13) UNIVERSITY OF TROMSO - TROMSO (NORWAY)                                  *
 *(14) UNIVERSITE' DE PAU ET DES PAYS DE L'ADOUR - PAU (FRANCE)                *
 *(15) UNIVERSITY OF CALIFORNIA SANTA BARBARA - SANTA BARBARA (USA)            *
 *(16) CURTIN UNIVERSITY - PERTH (AUSTRALIA)                                   *
 *(17) UNIVERSITY COLLEGE LONDON - LONDON (UK)                                 *
 *(18) CAMBRIDGE UNIVERSITY - CAMBRIDGE (UK)                                   *
 *                                                                             *
 *******************************************************************************
 EEEEEEEEEE STARTING  DATE 31 10 2022 TIME 17:18:25.6
 Final                                                                           

 GEOMETRY INPUT FROM EXTERNAL FILE (FORTRAN UNIT 34)
 3D - CRYSTAL 

 *******************************************************************************
 LATTICE PARAMETERS  (ANGSTROMS AND DEGREES) - PRIMITIVE CELL
       A          B          C        ALPHA      BETA     GAMMA        VOLUME
    7.40317    7.40317    8.68504    90.00000  90.00000 120.00000    412.228566
 INFORMATION **** CHKGRP **** SPGR WITH NO INVERSION

 NUMBER OF IRREDUCIBLE ATOMS IN THE CELL:   15

 CARTESIAN COORDINATES (ANGSTROM) - IRREDUCIBLE ATOMS AND SYMMETRY RELATED

 AT.IRR.  AT  AT.N.          X                   Y                   Z
     1     1     6    2.467724141366E+00  2.849482394607E+00  2.605511400000E+00
     2     2     6    3.701586212049E+00  4.986594190562E+00  2.605511400000E+00
     3     3     6    2.467724141366E+00 -1.424741197304E+00  2.605511400000E+00
     4     4     6    3.701586212049E+00  7.123705986520E-01  2.605511400000E+00
     5     5     6    4.935448282733E+00  2.849482394607E+00  2.605511400000E+00
     6     6     6    3.701586212049E+00 -3.561852993259E+00  2.605511400000E+00
     7     7     6    6.169310353416E+00  7.123705986520E-01  2.605511400000E+00
     8     8     6    2.467724141366E+00  1.424741197304E+00  2.605511400000E+00
     9     9     6    3.701586212049E+00  3.561852993259E+00  2.605511400000E+00
    10    10     6    2.467724141366E+00 -2.849482394607E+00  2.605511400000E+00
    11    11     6    3.701586212049E+00 -7.123705986520E-01  2.605511400000E+00
    12    12     6    4.935448282733E+00  1.424741197304E+00  2.605511400000E+00
    13    13     6    3.701586212049E+00 -4.986594190562E+00  2.605511400000E+00
    14    14     6    4.935448282733E+00 -2.849482394607E+00  2.605511400000E+00
    15    15     6    6.169310353416E+00 -7.123705986520E-01  2.605511400000E+00

 SPACE  GROUP  N.                     :    1
 NUMBER OF SYMMETRY OPERATORS         :    1
 *******************************************************************************
 LATTICE PARAMETERS (ANGSTROMS AND DEGREES) - BOHR = 0.5291772083 ANGSTROM
 PRIMITIVE CELL - CENTRING CODE 1/0 VOLUME=   412.228566 - DENSITY  0.725 g/cm^3
         A              B              C           ALPHA      BETA       GAMMA 
     7.40317242     7.40317242     8.68503800    90.000000  90.000000 120.000000
 *******************************************************************************
 ATOMS IN THE ASYMMETRIC UNIT   15 - ATOMS IN THE UNIT CELL:   15
     ATOM                 X/A                 Y/B                 Z/C    
 *******************************************************************************
      1 T   6 C     1.111111111111E-01 -4.444444444445E-01  3.000000000000E-01
      2 T   6 C     1.111111111111E-01 -1.111111111111E-01  3.000000000000E-01
      3 T   6 C     4.444444444445E-01  2.222222222222E-01  3.000000000000E-01
      4 T   6 C     4.444444444444E-01 -4.444444444444E-01  3.000000000000E-01
      5 T   6 C     4.444444444446E-01 -1.111111111110E-01  3.000000000000E-01
      6 T   6 C    -2.222222222222E-01  2.222222222222E-01  3.000000000000E-01
      7 T   6 C    -2.222222222221E-01 -1.111111111110E-01  3.000000000000E-01
      8 T   6 C     2.222222222222E-01  4.444444444445E-01  3.000000000000E-01
      9 T   6 C     2.222222222222E-01 -2.222222222222E-01  3.000000000000E-01
     10 T   6 C    -4.444444444445E-01  1.111111111111E-01  3.000000000000E-01
     11 T   6 C    -4.444444444444E-01  4.444444444444E-01  3.000000000000E-01
     12 T   6 C    -4.444444444443E-01 -2.222222222221E-01  3.000000000000E-01
     13 T   6 C    -1.111111111111E-01  1.111111111111E-01  3.000000000000E-01
     14 T   6 C    -1.111111111110E-01  4.444444444446E-01  3.000000000000E-01
     15 T   6 C    -1.111111111110E-01 -2.222222222221E-01  3.000000000000E-01

 T = ATOM BELONGING TO THE ASYMMETRIC UNIT
 *******************************************************************************
 * GEOMETRY EDITING - INPUT COORDINATES ARE GIVEN IN ANGSTROM         
 *******************************************************************************

 USE OF SYMMETRY WILL BE SUBSEQUENTLY SUSPENDED

 GCALCO - MAX INDICES DIRECT LATTICE VECTOR    16    16    12
 NO.OF VECTORS CREATED 6999 STARS  379 RMAX   166.99060 BOHR

 GEOMETRY FOR WAVE FUNCTION - DIMENSIONALITY OF THE SYSTEM    3
 (NON PERIODIC DIRECTION: LATTICE PARAMETER FORMALLY SET TO 500)
 *******************************************************************************
 LATTICE PARAMETERS (ANGSTROMS AND DEGREES) - BOHR = 0.5291772083 ANGSTROM
 PRIMITIVE CELL - CENTRING CODE 1/0 VOLUME=   412.228566 - DENSITY  0.725 g/cm^3
         A              B              C           ALPHA      BETA       GAMMA 
     7.40317242     7.40317242     8.68503800    90.000000  90.000000 120.000000
 *******************************************************************************
 ATOMS IN THE ASYMMETRIC UNIT   15 - ATOMS IN THE UNIT CELL:   15
     ATOM                 X/A                 Y/B                 Z/C    
 *******************************************************************************
      1 T   6 C     1.111111111111E-01 -4.444444444445E-01  3.000000000000E-01
      2 T   6 C     1.111111111111E-01 -1.111111111111E-01  3.000000000000E-01
      3 T   6 C     4.444444444445E-01  2.222222222222E-01  3.000000000000E-01
      4 T   6 C     4.444444444444E-01 -4.444444444444E-01  3.000000000000E-01
      5 T   6 C     4.444444444446E-01 -1.111111111110E-01  3.000000000000E-01
      6 T   6 C    -2.222222222222E-01  2.222222222222E-01  3.000000000000E-01
      7 T   6 C    -2.222222222221E-01 -1.111111111110E-01  3.000000000000E-01
      8 T   6 C     2.222222222222E-01  4.444444444445E-01  3.000000000000E-01
      9 T   6 C     2.222222222222E-01 -2.222222222222E-01  3.000000000000E-01
     10 T   6 C    -4.444444444445E-01  1.111111111111E-01  3.000000000000E-01
     11 T   6 C    -4.444444444444E-01  4.444444444444E-01  3.000000000000E-01
     12 T   6 C    -4.444444444443E-01 -2.222222222221E-01  3.000000000000E-01
     13 T   6 C    -1.111111111111E-01  1.111111111111E-01  3.000000000000E-01
     14 T   6 C    -1.111111111110E-01  4.444444444446E-01  3.000000000000E-01
     15 T   6 C    -1.111111111110E-01 -2.222222222221E-01  3.000000000000E-01

 T = ATOM BELONGING TO THE ASYMMETRIC UNIT

 ****    1 SYMMOPS - TRANSLATORS IN FRACTIONAL UNITS
 **** MATRICES AND TRANSLATORS IN THE CRYSTALLOGRAPHIC REFERENCE FRAME
   V INV                    ROTATION MATRICES                   TRANSLATORS
   1   1  1.00  0.00  0.00  0.00  1.00  0.00  0.00  0.00  1.00  0.00  0.00  0.00

 DIRECT LATTICE VECTORS CARTESIAN COMPONENTS (ANGSTROM)
          X                    Y                    Z
   0.370158621205E+01  -0.641133538787E+01   0.000000000000E+00
   0.370158621205E+01   0.641133538787E+01   0.000000000000E+00
   0.000000000000E+00   0.000000000000E+00   0.868503800000E+01


 CARTESIAN COORDINATES - PRIMITIVE CELL
 *******************************************************************************
 *      ATOM          X(ANGSTROM)         Y(ANGSTROM)         Z(ANGSTROM)
 *******************************************************************************
    1     6 C     2.467724141366E+00  2.849482394607E+00  2.605511400000E+00
    2     6 C     3.701586212049E+00  4.986594190562E+00  2.605511400000E+00
    3     6 C     2.467724141366E+00 -1.424741197304E+00  2.605511400000E+00
    4     6 C     3.701586212049E+00  7.123705986520E-01  2.605511400000E+00
    5     6 C     4.935448282733E+00  2.849482394607E+00  2.605511400000E+00
    6     6 C     3.701586212049E+00 -3.561852993259E+00  2.605511400000E+00
    7     6 C     6.169310353416E+00  7.123705986520E-01  2.605511400000E+00
    8     6 C     2.467724141366E+00  1.424741197304E+00  2.605511400000E+00
    9     6 C     3.701586212049E+00  3.561852993259E+00  2.605511400000E+00
   10     6 C     2.467724141366E+00 -2.849482394607E+00  2.605511400000E+00
   11     6 C     3.701586212049E+00 -7.123705986520E-01  2.605511400000E+00
   12     6 C     4.935448282733E+00  1.424741197304E+00  2.605511400000E+00
   13     6 C     3.701586212049E+00 -4.986594190562E+00  2.605511400000E+00
   14     6 C     4.935448282733E+00 -2.849482394607E+00  2.605511400000E+00
   15     6 C     6.169310353416E+00 -7.123705986520E-01  2.605511400000E+00

 *******************************************************************************
 LOCAL ATOMIC FUNCTIONS BASIS SET
 *******************************************************************************
   ATOM   X(AU)   Y(AU)   Z(AU)  N. TYPE  EXPONENT  S COEF   P COEF   D/F/G COEF
 *******************************************************************************
   1 C    4.663   5.385   4.924
                                  1 S  
                                         1.358E+04 2.225E-04 0.000E+00 0.000E+00
                                         2.035E+03 1.723E-03 0.000E+00 0.000E+00
                                         4.632E+02 8.926E-03 0.000E+00 0.000E+00
                                         1.312E+02 3.573E-02 0.000E+00 0.000E+00
                                         4.285E+01 1.108E-01 0.000E+00 0.000E+00
                                         1.558E+01 2.430E-01 0.000E+00 0.000E+00
                                  2 S  
                                         6.207E+00 4.144E-01 0.000E+00 0.000E+00
                                         2.576E+00 2.374E-01 0.000E+00 0.000E+00
                                  3 S  
                                         4.941E-01 1.000E+00 0.000E+00 0.000E+00
                                  4 S  
                                         1.644E-01 1.000E+00 0.000E+00 0.000E+00
                           5-     7 P  
                                         3.470E+01 0.000E+00 5.333E-03 0.000E+00
                                         7.958E+00 0.000E+00 3.586E-02 0.000E+00
                                         2.378E+00 0.000E+00 1.422E-01 0.000E+00
                                         8.143E-01 0.000E+00 3.427E-01 0.000E+00
                           8-    10 P  
                                         5.662E-01 0.000E+00 1.000E+00 0.000E+00
                          11-    13 P  
                                         1.974E-01 0.000E+00 1.000E+00 0.000E+00
                          14-    18 D  
                                         5.792E-01 0.000E+00 0.000E+00 1.000E+00
   2 C    6.995   9.423   4.924
   3 C    4.663  -2.692   4.924
   4 C    6.995   1.346   4.924
   5 C    9.327   5.385   4.924
   6 C    6.995  -6.731   4.924
   7 C   11.658   1.346   4.924
   8 C    4.663   2.692   4.924
   9 C    6.995   6.731   4.924
  10 C    4.663  -5.385   4.924
  11 C    6.995  -1.346   4.924
  12 C    9.327   2.692   4.924
  13 C    6.995  -9.423   4.924
  14 C    9.327  -5.385   4.924
  15 C   11.658  -1.346   4.924
 INFORMATION **** SET_MPP **** PCRYSTAL CALCULATION
 INFORMATION **** READM2 **** NEW DEFAULT: FOCK/KS MATRIX MIXING SET TO 30 %
 INFORMATION **** READM2 **** NEW DEFAULT: FULL DIRECT SCF MODE
 INFORMATION **** READM2 **** NEW DEFAULT: COULOMB BIPOLAR BUFFER SET TO 32 Mb
 INFORMATION **** READM2 **** NEW DEFAULT: EXCHANGE BIPOLAR BUFFER SET TO 32 Mb

 *******************************************************************************
 NEW DEFAULT: DFT INTEGRATION GRID INCREASED TO XLGRID
 NEW DEFAULT: DIIS ACCELERATOR ACTIVE
 USE KEYWORD NODIIS TO TURN IT OFF
 *******************************************************************************

 INFORMATION **** TOLINTEG **** COULOMB AND EXCHANGE SERIES TOLERANCES MODIFIED
 INFORMATION **** READM2 **** FULL DIRECT SCF (MONO AND BIEL INT) SELECTED
 INFORMATION **** MAXCYCLE **** MAX NUMBER OF SCF CYCLES SET TO         200
 INFORMATION **** TOLDEE **** SCF TOL ON TOTAL ENERGY SET TO           9
 *******************************************************************************
 N. OF ATOMS PER CELL        15  COULOMB OVERLAP TOL         (T1) 10**   -8
 NUMBER OF SHELLS           120  COULOMB PENETRATION TOL     (T2) 10**   -8
 NUMBER OF AO               270  EXCHANGE OVERLAP TOL        (T3) 10**   20
 N. OF ELECTRONS PER CELL    90  EXCHANGE PSEUDO OVP (F(G))  (T4) 10**   20
 CORE ELECTRONS PER CELL     30  EXCHANGE PSEUDO OVP (P(G))  (T5) 10**   20
 N. OF SYMMETRY OPERATORS     1  POLE ORDER IN MONO ZONE                  4
 *******************************************************************************
 TYPE OF CALCULATION :  RESTRICTED CLOSED SHELL
 KOHN-SHAM HAMILTONIAN

 (EXCHANGE)[CORRELATION] FUNCTIONAL:(PERDEW-BURKE-ERNZERHOF)[PERDEW-BURKE-ERNZERHOF]


 CAPPA:IS1  8;IS2  8;IS3  8; K PTS MONK NET 260; SYMMOPS:K SPACE   2;G SPACE   1

 *******************************************************************************
 MAX NUMBER OF SCF CYCLES     200  CONVERGENCE ON DELTAP        10**-19
 WEIGHT OF F(I) IN F(I+1)      30% CONVERGENCE ON ENERGY        10**- 9
 SHRINK. FACT.(MONKH.)    8  8  8  NUMBER OF K POINTS IN THE IBZ    260
 SHRINKING FACTOR(GILAT NET)   16  NUMBER OF K POINTS(GILAT NET)   2052
 *******************************************************************************
 *** K POINTS COORDINATES (OBLIQUE COORDINATES IN UNITS OF IS =  8)
   1-R(  0  0  0)   2-C(  1  0  0)   3-C(  2  0  0)   4-C(  3  0  0)
   5-R(  4  0  0)   6-C(  0  1  0)   7-C(  1  1  0)   8-C(  2  1  0)
   9-C(  3  1  0)  10-C(  4  1  0)  11-C(  5  1  0)  12-C(  6  1  0)
  13-C(  7  1  0)  14-C(  0  2  0)  15-C(  1  2  0)  16-C(  2  2  0)
  17-C(  3  2  0)  18-C(  4  2  0)  19-C(  5  2  0)  20-C(  6  2  0)
  21-C(  7  2  0)  22-C(  0  3  0)  23-C(  1  3  0)  24-C(  2  3  0)
  25-C(  3  3  0)  26-C(  4  3  0)  27-C(  5  3  0)  28-C(  6  3  0)
  29-C(  7  3  0)  30-R(  0  4  0)  31-C(  1  4  0)  32-C(  2  4  0)
  33-C(  3  4  0)  34-R(  4  4  0)  35-C(  0  0  1)  36-C(  1  0  1)
  37-C(  2  0  1)  38-C(  3  0  1)  39-C(  4  0  1)  40-C(  5  0  1)
  41-C(  6  0  1)  42-C(  7  0  1)  43-C(  0  1  1)  44-C(  1  1  1)
  45-C(  2  1  1)  46-C(  3  1  1)  47-C(  4  1  1)  48-C(  5  1  1)
  49-C(  6  1  1)  50-C(  7  1  1)  51-C(  0  2  1)  52-C(  1  2  1)
  53-C(  2  2  1)  54-C(  3  2  1)  55-C(  4  2  1)  56-C(  5  2  1)
  57-C(  6  2  1)  58-C(  7  2  1)  59-C(  0  3  1)  60-C(  1  3  1)
  61-C(  2  3  1)  62-C(  3  3  1)  63-C(  4  3  1)  64-C(  5  3  1)
  65-C(  6  3  1)  66-C(  7  3  1)  67-C(  0  4  1)  68-C(  1  4  1)
  69-C(  2  4  1)  70-C(  3  4  1)  71-C(  4  4  1)  72-C(  5  4  1)
  73-C(  6  4  1)  74-C(  7  4  1)  75-C(  0  5  1)  76-C(  1  5  1)
  77-C(  2  5  1)  78-C(  3  5  1)  79-C(  4  5  1)  80-C(  5  5  1)
  81-C(  6  5  1)  82-C(  7  5  1)  83-C(  0  6  1)  84-C(  1  6  1)
  85-C(  2  6  1)  86-C(  3  6  1)  87-C(  4  6  1)  88-C(  5  6  1)
  89-C(  6  6  1)  90-C(  7  6  1)  91-C(  0  7  1)  92-C(  1  7  1)
  93-C(  2  7  1)  94-C(  3  7  1)  95-C(  4  7  1)  96-C(  5  7  1)
  97-C(  6  7  1)  98-C(  7  7  1)  99-C(  0  0  2) 100-C(  1  0  2)
 101-C(  2  0  2) 102-C(  3  0  2) 103-C(  4  0  2) 104-C(  5  0  2)
 105-C(  6  0  2) 106-C(  7  0  2) 107-C(  0  1  2) 108-C(  1  1  2)
 109-C(  2  1  2) 110-C(  3  1  2) 111-C(  4  1  2) 112-C(  5  1  2)
 113-C(  6  1  2) 114-C(  7  1  2) 115-C(  0  2  2) 116-C(  1  2  2)
 117-C(  2  2  2) 118-C(  3  2  2) 119-C(  4  2  2) 120-C(  5  2  2)
 121-C(  6  2  2) 122-C(  7  2  2) 123-C(  0  3  2) 124-C(  1  3  2)
 125-C(  2  3  2) 126-C(  3  3  2) 127-C(  4  3  2) 128-C(  5  3  2)
 129-C(  6  3  2) 130-C(  7  3  2) 131-C(  0  4  2) 132-C(  1  4  2)
 133-C(  2  4  2) 134-C(  3  4  2) 135-C(  4  4  2) 136-C(  5  4  2)
 137-C(  6  4  2) 138-C(  7  4  2) 139-C(  0  5  2) 140-C(  1  5  2)
 141-C(  2  5  2) 142-C(  3  5  2) 143-C(  4  5  2) 144-C(  5  5  2)
 145-C(  6  5  2) 146-C(  7  5  2) 147-C(  0  6  2) 148-C(  1  6  2)
 149-C(  2  6  2) 150-C(  3  6  2) 151-C(  4  6  2) 152-C(  5  6  2)
 153-C(  6  6  2) 154-C(  7  6  2) 155-C(  0  7  2) 156-C(  1  7  2)
 157-C(  2  7  2) 158-C(  3  7  2) 159-C(  4  7  2) 160-C(  5  7  2)
 161-C(  6  7  2) 162-C(  7  7  2) 163-C(  0  0  3) 164-C(  1  0  3)
 165-C(  2  0  3) 166-C(  3  0  3) 167-C(  4  0  3) 168-C(  5  0  3)
 169-C(  6  0  3) 170-C(  7  0  3) 171-C(  0  1  3) 172-C(  1  1  3)
 173-C(  2  1  3) 174-C(  3  1  3) 175-C(  4  1  3) 176-C(  5  1  3)
 177-C(  6  1  3) 178-C(  7  1  3) 179-C(  0  2  3) 180-C(  1  2  3)
 181-C(  2  2  3) 182-C(  3  2  3) 183-C(  4  2  3) 184-C(  5  2  3)
 185-C(  6  2  3) 186-C(  7  2  3) 187-C(  0  3  3) 188-C(  1  3  3)
 189-C(  2  3  3) 190-C(  3  3  3) 191-C(  4  3  3) 192-C(  5  3  3)
 193-C(  6  3  3) 194-C(  7  3  3) 195-C(  0  4  3) 196-C(  1  4  3)
 197-C(  2  4  3) 198-C(  3  4  3) 199-C(  4  4  3) 200-C(  5  4  3)
 201-C(  6  4  3) 202-C(  7  4  3) 203-C(  0  5  3) 204-C(  1  5  3)
 205-C(  2  5  3) 206-C(  3  5  3) 207-C(  4  5  3) 208-C(  5  5  3)
 209-C(  6  5  3) 210-C(  7  5  3) 211-C(  0  6  3) 212-C(  1  6  3)
 213-C(  2  6  3) 214-C(  3  6  3) 215-C(  4  6  3) 216-C(  5  6  3)
 217-C(  6  6  3) 218-C(  7  6  3) 219-C(  0  7  3) 220-C(  1  7  3)
 221-C(  2  7  3) 222-C(  3  7  3) 223-C(  4  7  3) 224-C(  5  7  3)
 225-C(  6  7  3) 226-C(  7  7  3) 227-R(  0  0  4) 228-C(  1  0  4)
 229-C(  2  0  4) 230-C(  3  0  4) 231-R(  4  0  4) 232-C(  0  1  4)
 233-C(  1  1  4) 234-C(  2  1  4) 235-C(  3  1  4) 236-C(  4  1  4)
 237-C(  5  1  4) 238-C(  6  1  4) 239-C(  7  1  4) 240-C(  0  2  4)
 241-C(  1  2  4) 242-C(  2  2  4) 243-C(  3  2  4) 244-C(  4  2  4)
 245-C(  5  2  4) 246-C(  6  2  4) 247-C(  7  2  4) 248-C(  0  3  4)
 249-C(  1  3  4) 250-C(  2  3  4) 251-C(  3  3  4) 252-C(  4  3  4)
 253-C(  5  3  4) 254-C(  6  3  4) 255-C(  7  3  4) 256-R(  0  4  4)
 257-C(  1  4  4) 258-C(  2  4  4) 259-C(  3  4  4) 260-R(  4  4  4)

 DIRECT LATTICE VECTORS COMPON. (A.U.)     RECIP. LATTICE VECTORS COMPON. (A.U.) 
        X            Y            Z              X            Y            Z
    6.9949842  -12.1156680    0.0000000      0.4491208   -0.2593000    0.0000000
    6.9949842   12.1156680    0.0000000      0.4491208    0.2593000   -0.0000000
    0.0000000    0.0000000   16.4123433     -0.0000000    0.0000000    0.3828329

 DISK SPACE FOR EIGENVECTORS (FTN 10)    37324800 REALS

 SYMMETRY ADAPTION OF THE BLOCH FUNCTIONS DISABLED
 TTTTTTTTTTTTTTTTTTTTTTTTTTTTTT gordsh1     TELAPSE        2.81 TCPU        0.98

 MATRIX SIZE: P(G)  110574, F(G)   55467, P(G) IRR   55752, F(G) IRR   55752
 MAX G-VECTOR INDEX FOR 1- AND 2-ELECTRON INTEGRALS  27

 TTTTTTTTTTTTTTTTTTTTTTTTTTTTTT INPUT       TELAPSE        2.83 TCPU        1.01

 NEIGHBORS OF THE NON-EQUIVALENT ATOMS

 N = NUMBER OF NEIGHBORS AT DISTANCE R
    ATOM  N     R/ANG      R/AU   NEIGHBORS (ATOM LABELS AND CELL INDICES)
   1 C    3     1.4247     2.6924    8 C    0 0 0    9 C    0 0 0   14 C   -1 0 0
   1 C    4     2.4677     4.6633    2 C    0 0 0    4 C    0 0 0    5 C    0 0 0
                                     6 C   -1 0 0
   1 C    3     2.8495     5.3847   12 C    0 0 0   13 C   -1 0 0   15 C   -1 0 0
   1 C    4     3.7695     7.1233   10 C   -1 0 0   10 C    0 1 0   11 C    0 0 0
                                    11 C   -1 0 0
   1 C    6     4.2742     8.0771    3 C    0 0 0    3 C   -1 0 0    3 C    0 1 0
                                     7 C    0 0 0    7 C   -1-1 0    7 C   -1 0 0
   1 C    4     4.9354     9.3266    2 C    0-1 0    4 C   -1 0 0    5 C   -1-1 0
                                     6 C    0 1 0

   2 C    2     1.4247     2.6924    9 C    0 0 0   15 C   -1 0 0
   2 C    4     2.4677     4.6633    1 C    0 0 0    3 C    0 1 0    5 C    0 0 0
                                     7 C   -1 0 0
   2 C    3     2.8495     5.3847   10 C    0 1 0   13 C   -1 1 0   14 C   -1 0 0
   2 C    6     3.7695     7.1233    8 C    0 0 0    8 C    0 1 0   11 C   -1 0 0
                                    11 C    0 1 0   12 C    0 0 0   12 C   -1 0 0
   2 C    6     4.2742     8.0771    4 C    0 0 0    4 C   -1 0 0    4 C    0 1 0
                                     6 C   -1 0 0    6 C    0 1 0    6 C   -1 1 0
   2 C    4     4.9354     9.3266    1 C    0 1 0    3 C   -1 0 0    5 C   -1 0 0
                                     7 C    0 0 0

   3 C    2     1.4247     2.6924   10 C    0 0 0   11 C    0 0 0
   3 C    4     2.4677     4.6633    2 C    0-1 0    4 C    0 0 0    5 C    0-1 0
                                     6 C    0 0 0
   3 C    3     2.8495     5.3847    8 C    0 0 0    9 C    0-1 0   14 C    0 0 0
   3 C    6     3.7695     7.1233   12 C    0 0 0   12 C    0-1 0   13 C    0 0 0
                                    13 C   -1 0 0   15 C    0 0 0   15 C   -1-1 0
   3 C    6     4.2742     8.0771    1 C    0 0 0    1 C    1 0 0    1 C    0-1 0
                                     7 C    0 0 0    7 C   -1-1 0    7 C    0-1 0
   3 C    4     4.9354     9.3266    2 C    1 0 0    4 C    0-1 0    5 C    0 0 0
                                     6 C   -1 0 0

   4 C    3     1.4247     2.6924    8 C    0 0 0   11 C    0 0 0   12 C    0 0 0
   4 C    4     2.4677     4.6633    1 C    0 0 0    3 C    0 0 0    5 C    0 0 0
                                     7 C    0 0 0
   4 C    2     2.8495     5.3847    9 C    0 0 0   15 C    0 0 0
   4 C    6     3.7695     7.1233   10 C    0 0 0   10 C    0 1 0   13 C   -1 0 0
                                    13 C    0 1 0   14 C    0 0 0   14 C   -1 0 0
   4 C    6     4.2742     8.0771    2 C    0 0 0    2 C    1 0 0    2 C    0-1 0
                                     6 C    0 0 0    6 C   -1 0 0    6 C    0 1 0
   4 C    4     4.9354     9.3266    1 C    1 0 0    3 C    0 1 0    5 C    0-1 0
                                     7 C   -1-1 0

   5 C    3     1.4247     2.6924    9 C    0 0 0   10 C    0 1 0   12 C    0 0 0
   5 C    6     2.4677     4.6633    1 C    0 0 0    2 C    0 0 0    3 C    0 1 0
                                     4 C    0 0 0    6 C    0 1 0    7 C    0 0 0
   5 C    2     2.8495     5.3847    8 C    0 0 0   13 C    0 1 0
   5 C    6     3.7695     7.1233   11 C    0 0 0   11 C    0 1 0   14 C   -1 0 0
                                    14 C    0 1 0   15 C    0 0 0   15 C   -1 0 0
   5 C    6     4.9354     9.3266    1 C    1 1 0    2 C    1 0 0    3 C    0 0 0
                                     4 C    0 1 0    6 C   -1 0 0    7 C   -1 0 0
   5 C    4     5.1370     9.7075    8 C    1 1 0    8 C    0 1 0   13 C   -1 0 0
                                    13 C   -1 1 0

   6 C    3     1.4247     2.6924   10 C    0 0 0   13 C    0 0 0   14 C    0 0 0
   6 C    4     2.4677     4.6633    1 C    1 0 0    3 C    0 0 0    5 C    0-1 0
                                     7 C    0-1 0
   6 C    3     2.8495     5.3847    8 C    1 0 0   11 C    0 0 0   12 C    0-1 0
   6 C    4     3.7695     7.1233    9 C    1 0 0    9 C    0-1 0   15 C    0 0 0
                                    15 C    0-1 0
   6 C    6     4.2742     8.0771    2 C    1 0 0    2 C    0-1 0    2 C    1-1 0
                                     4 C    0 0 0    4 C    1 0 0    4 C    0-1 0
   6 C    4     4.9354     9.3266    1 C    0-1 0    3 C    1 0 0    5 C    1 0 0
                                     7 C    0 0 0

   7 C    3     1.4247     2.6924   12 C    0 0 0   13 C    0 1 0   15 C    0 0 0
   7 C    4     2.4677     4.6633    2 C    1 0 0    4 C    0 0 0    5 C    0 0 0
                                     6 C    0 1 0
   7 C    2     2.8495     5.3847   10 C    0 1 0   11 C    0 0 0
   7 C    6     3.7695     7.1233    8 C    0 0 0    8 C    1 1 0    9 C    0 0 0
                                     9 C    1 0 0   14 C    0 0 0   14 C    0 1 0
   7 C    6     4.2742     8.0771    1 C    0 0 0    1 C    1 1 0    1 C    1 0 0
                                     3 C    0 0 0    3 C    1 1 0    3 C    0 1 0
   7 C    4     4.9354     9.3266    2 C    0 0 0    4 C    1 1 0    5 C    1 0 0
                                     6 C    0 0 0

   8 C    2     1.4247     2.6924    1 C    0 0 0    4 C    0 0 0
   8 C    5     2.4677     4.6633    9 C    0 0 0   11 C    0 0 0   12 C    0 0 0
                                    13 C   -1 0 0   14 C   -1 0 0
   8 C    3     2.8495     5.3847    3 C    0 0 0    5 C    0 0 0    6 C   -1 0 0
   8 C    4     3.7695     7.1233    2 C    0 0 0    2 C    0-1 0    7 C    0 0 0
                                     7 C   -1-1 0
   8 C    6     4.2742     8.0771   10 C    0 0 0   10 C   -1 0 0   10 C    0 1 0
                                    15 C    0 0 0   15 C   -1-1 0   15 C   -1 0 0
   8 C    5     4.9354     9.3266    9 C    0-1 0   11 C   -1 0 0   12 C   -1-1 0
                                    13 C    0 1 0   14 C    0 0 0

   9 C    3     1.4247     2.6924    1 C    0 0 0    2 C    0 0 0    5 C    0 0 0
   9 C    5     2.4677     4.6633    8 C    0 0 0   10 C    0 1 0   12 C    0 0 0
                                    14 C   -1 0 0   15 C   -1 0 0
   9 C    2     2.8495     5.3847    3 C    0 1 0    4 C    0 0 0
   9 C    4     3.7695     7.1233    6 C   -1 0 0    6 C    0 1 0    7 C    0 0 0
                                     7 C   -1 0 0
   9 C    6     4.2742     8.0771   11 C    0 0 0   11 C   -1 0 0   11 C    0 1 0
                                    13 C   -1 0 0   13 C    0 1 0   13 C   -1 1 0
   9 C    5     4.9354     9.3266    8 C    0 1 0   10 C   -1 0 0   12 C   -1 0 0
                                    14 C    0 1 0   15 C    0 0 0

  10 C    3     1.4247     2.6924    3 C    0 0 0    5 C    0-1 0    6 C    0 0 0
  10 C    5     2.4677     4.6633    9 C    0-1 0   11 C    0 0 0   12 C    0-1 0
                                    13 C    0 0 0   14 C    0 0 0
  10 C    2     2.8495     5.3847    2 C    0-1 0    7 C    0-1 0
  10 C    4     3.7695     7.1233    1 C    1 0 0    1 C    0-1 0    4 C    0 0 0
                                     4 C    0-1 0
  10 C    6     4.2742     8.0771    8 C    0 0 0    8 C    1 0 0    8 C    0-1 0
                                    15 C    0 0 0   15 C   -1-1 0   15 C    0-1 0
  10 C    5     4.9354     9.3266    9 C    1 0 0   11 C    0-1 0   12 C    0 0 0
                                    13 C   -1 0 0   14 C   -1-1 0

  11 C    2     1.4247     2.6924    3 C    0 0 0    4 C    0 0 0
  11 C    5     2.4677     4.6633    8 C    0 0 0   10 C    0 0 0   12 C    0 0 0
                                    14 C    0 0 0   15 C    0 0 0
  11 C    2     2.8495     5.3847    6 C    0 0 0    7 C    0 0 0
  11 C    6     3.7695     7.1233    1 C    0 0 0    1 C    1 0 0    2 C    1 0 0
                                     2 C    0-1 0    5 C    0 0 0    5 C    0-1 0
  11 C    6     4.2742     8.0771    9 C    0 0 0    9 C    1 0 0    9 C    0-1 0
                                    13 C    0 0 0   13 C   -1 0 0   13 C    0 1 0
  11 C    5     4.9354     9.3266    8 C    1 0 0   10 C    0 1 0   12 C    0-1 0
                                    14 C   -1 0 0   15 C   -1-1 0

  12 C    3     1.4247     2.6924    4 C    0 0 0    5 C    0 0 0    7 C    0 0 0
  12 C    6     2.4677     4.6633    8 C    0 0 0    9 C    0 0 0   10 C    0 1 0
                                    11 C    0 0 0   13 C    0 1 0   15 C    0 0 0
  12 C    2     2.8495     5.3847    1 C    0 0 0    6 C    0 1 0
  12 C    4     3.7695     7.1233    2 C    0 0 0    2 C    1 0 0    3 C    0 0 0
                                     3 C    0 1 0
  12 C    3     4.2742     8.0771   14 C    0 0 0   14 C   -1 0 0   14 C    0 1 0
  12 C    6     4.9354     9.3266    8 C    1 1 0    9 C    1 0 0   10 C    0 0 0
                                    11 C    0 1 0   13 C   -1 0 0   15 C   -1 0 0

  13 C    2     1.4247     2.6924    6 C    0 0 0    7 C    0-1 0
  13 C    5     2.4677     4.6633    8 C    1 0 0   10 C    0 0 0   12 C    0-1 0
                                    14 C    0 0 0   15 C    0-1 0
  13 C    3     2.8495     5.3847    1 C    1 0 0    2 C    1-1 0    5 C    0-1 0
  13 C    4     3.7695     7.1233    3 C    0 0 0    3 C    1 0 0    4 C    1 0 0
                                     4 C    0-1 0
  13 C    6     4.2742     8.0771    9 C    1 0 0    9 C    0-1 0    9 C    1-1 0
                                    11 C    0 0 0   11 C    1 0 0   11 C    0-1 0
  13 C    5     4.9354     9.3266    8 C    0-1 0   10 C    1 0 0   12 C    1 0 0
                                    14 C    0-1 0   15 C    0 0 0

  14 C    2     1.4247     2.6924    1 C    1 0 0    6 C    0 0 0
  14 C    6     2.4677     4.6633    8 C    1 0 0    9 C    1 0 0   10 C    0 0 0
                                    11 C    0 0 0   13 C    0 0 0   15 C    0 0 0
  14 C    2     2.8495     5.3847    2 C    1 0 0    3 C    0 0 0
  14 C    6     3.7695     7.1233    4 C    0 0 0    4 C    1 0 0    5 C    1 0 0
                                     5 C    0-1 0    7 C    0 0 0    7 C    0-1 0
  14 C    3     4.2742     8.0771   12 C    0 0 0   12 C    1 0 0   12 C    0-1 0
  14 C    6     4.9354     9.3266    8 C    0 0 0    9 C    0-1 0   10 C    1 1 0
                                    11 C    1 0 0   13 C    0 1 0   15 C    0-1 0

  15 C    2     1.4247     2.6924    2 C    1 0 0    7 C    0 0 0
  15 C    5     2.4677     4.6633    9 C    1 0 0   11 C    0 0 0   12 C    0 0 0
                                    13 C    0 1 0   14 C    0 0 0
  15 C    2     2.8495     5.3847    1 C    1 0 0    4 C    0 0 0
  15 C    6     3.7695     7.1233    3 C    0 0 0    3 C    1 1 0    5 C    0 0 0
                                     5 C    1 0 0    6 C    0 0 0    6 C    0 1 0
  15 C    6     4.2742     8.0771    8 C    0 0 0    8 C    1 1 0    8 C    1 0 0
                                    10 C    0 0 0   10 C    1 1 0   10 C    0 1 0
  15 C    5     4.9354     9.3266    9 C    0 0 0   11 C    1 1 0   12 C    1 0 0
                                    13 C    0 0 0   14 C    0 1 0


 SYMMETRY ALLOWED INTERNAL DEGREE(S) OF FREEDOM:  42
 TTTTTTTTTTTTTTTTTTTTTTTTTTTTTT SYMM        TELAPSE        2.84 TCPU        1.01
 TTTTTTTTTTTTTTTTTTTTTTTTTTTTTT INT_SCREEN  TELAPSE        2.84 TCPU        1.01
 INFORMATION **** EXCBUF **** EXCH. BIPO BUFFER: WORDS USED =           0

 DFT PARAMETERS

     ATOM       ELECTRONS   NET CHARGE   R(ANGSTROM)
   1   6  C       6.0000      0.0000     0.77000000

 SIZE OF GRID=     503464
 TTTTTTTTTTTTTTTTTTTTTTTTTTTTTT MAKE_GRID2  TELAPSE        3.18 TCPU        1.36
 BECKE WEIGHT FUNCTION
 RADSAFE =     2.00
 TOLERANCES - DENSITY:10**- 6; POTENTIAL:10**- 9; GRID WGT:10**-14

 RADIAL INTEGRATION  - INTERVALS (POINTS,UPPER LIMIT):            1( 75,  4.0*R)

 ANGULAR INTEGRATION - INTERVALS (ACCURACY LEVEL [N. POINTS] UPPER LIMIT):
  1(  4[  86]   0.2)  2(  8[ 194]   0.5)  3( 12[ 350]   0.9)  4( 16[ 974]   3.5)
  5( 12[ 350]9999.0)
 TTTTTTTTTTTTTTTTTTTTTTTTTTTTTT INT_CALC    TELAPSE        3.21 TCPU        1.38
 EEEEEEEEEE INT_CALC TERMINATION  DATE 31 10 2022 TIME 17:18:26.3

 *******************************************************************************
 Final                                                                           
 CRYSTAL - SCF - TYPE OF CALCULATION :  RESTRICTED CLOSED SHELL
 *******************************************************************************

 CAPPA:IS1  8;IS2  8;IS3  8; K PTS MONK NET 260; SYMMOPS:K SPACE   2;G SPACE   1

 TTTTTTTTTTTTTTTTTTTTTTTTTTTTTT SDIK        TELAPSE        3.27 TCPU        1.44

 AAAAAAAAAAAAAAAAAAAAAAAAAAAAAAAAAAAAAAAAAAAAAAAAAAAAAAAAAAAAAAAAAAAAAAAAAAAAAAA
         ATOMIC WAVEFUNCTION(S)


 NUCLEAR CHARGE  6.0  SYMMETRY SPECIES            S    P
 N. ELECTRONS    6.0  NUMBER OF PRIMITIVE GTOS   10    6
                      NUMBER OF CONTRACTED GTOS   4    3
                      NUMBER OF CLOSED SHELLS     2    0
                      OPEN SHELL OCCUPATION       0    2

  ZNUC SCFIT  TOTAL HF ENERGY   KINETIC ENERGY   VIRIAL THEOREM ACCURACY
   6.0  10   -3.768111494E+01  3.771190961E+01 -1.999183423E+00  3.4E-06

 AAAAAAAAAAAAAAAAAAAAAAAAAAAAAAAAAAAAAAAAAAAAAAAAAAAAAAAAAAAAAAAAAAAAAAAAAAAAAAA

 CHARGE NORMALIZATION FACTOR   1.00000000
 TOTAL ATOMIC CHARGES:
   6.0000000   6.0000000   6.0000000   6.0000000   6.0000000   6.0000000
   6.0000000   6.0000000   6.0000000   6.0000000   6.0000000   6.0000000
   6.0000000   6.0000000   6.0000000
 TTTTTTTTTTTTTTTTTTTTTTTTTTTTTT MOQGAD      TELAPSE        3.28 TCPU        1.45
 TTTTTTTTTTTTTTTTTTTTTTTTTTTTTT SHELLXN     TELAPSE        3.92 TCPU        2.09
 TTTTTTTTTTTTTTTTTTTTTTTTTTTTTT MONMO3      TELAPSE        4.03 TCPU        2.19
 NUMERICALLY INTEGRATED DENSITY     89.9997960592
 TTTTTTTTTTTTTTTTTTTTTTTTTTTTTT NUMDFT      TELAPSE        4.18 TCPU        2.35
 CYC   0 ETOT(AU) -5.739723838903E+02 DETOT -5.74E+02 tst  0.00E+00 PX  1.00E+00
 TTTTTTTTTTTTTTTTTTTTTTTTTTTTTT DIIS        TELAPSE        4.19 TCPU        2.36
 TTTTTTTTTTTTTTTTTTTTTTTTTTTTTT FDIK        TELAPSE        4.35 TCPU        2.52
 POSSIBLY CONDUCTING STATE - EFERMI(AU) -2.3694159E-01 (RES. CHARGE  1.47E-12;IT. 16)
 TTTTTTTTTTTTTTTTTTTTTTTTTTTTTT PDIG        TELAPSE        4.44 TCPU        2.60
 CHARGE NORMALIZATION FACTOR   1.00000000
 TOTAL ATOMIC CHARGES:
   6.1313391   6.2093171   6.2093170   6.0537570   6.0477674   6.1313342
   6.0537573   5.7894392   5.9895185   5.9895232   5.9019681   5.9590859
   5.7894374   5.8424701   5.9019685
 TTTTTTTTTTTTTTTTTTTTTTTTTTTTTT MOQGAD      TELAPSE        4.44 TCPU        2.60
 TTTTTTTTTTTTTTTTTTTTTTTTTTTTTT SHELLXN     TELAPSE        5.18 TCPU        3.34
 TTTTTTTTTTTTTTTTTTTTTTTTTTTTTT MONMO3      TELAPSE        5.29 TCPU        3.45
 NUMERICALLY INTEGRATED DENSITY     89.9998416883
 TTTTTTTTTTTTTTTTTTTTTTTTTTTTTT NUMDFT      TELAPSE        5.55 TCPU        3.71
 CYC   1 ETOT(AU) -5.704805098289E+02 DETOT  3.49E+00 tst  0.00E+00 PX  1.00E+00
 TTTTTTTTTTTTTTTTTTTTTTTTTTTTTT DIIS        TELAPSE        5.56 TCPU        3.72
 DIIS TEST: 0.68447E+00 AT SCF   CYCLE   1 - MIX   30 %
 TTTTTTTTTTTTTTTTTTTTTTTTTTTTTT FDIK        TELAPSE        5.73 TCPU        3.88
 POSSIBLY CONDUCTING STATE - EFERMI(AU) -1.9164492E-01 (RES. CHARGE  7.82E-11;IT. 12)
 TTTTTTTTTTTTTTTTTTTTTTTTTTTTTT PDIG        TELAPSE        5.82 TCPU        3.98
 CHARGE NORMALIZATION FACTOR   1.00000000
 TOTAL ATOMIC CHARGES:
   5.8293886   5.2900655   5.2900655   5.8616528   5.8557116   5.8293830
   5.8616537   6.4282005   5.8042574   5.8042625   6.5158977   6.0808286
   6.4281990   6.6045354   6.5158982
 TTTTTTTTTTTTTTTTTTTTTTTTTTTTTT MOQGAD      TELAPSE        5.82 TCPU        3.98
 TTTTTTTTTTTTTTTTTTTTTTTTTTTTTT SHELLXN     TELAPSE        6.56 TCPU        4.71
 TTTTTTTTTTTTTTTTTTTTTTTTTTTTTT MONMO3      TELAPSE        6.67 TCPU        4.82
 NUMERICALLY INTEGRATED DENSITY     89.9998130673
 TTTTTTTTTTTTTTTTTTTTTTTTTTTTTT NUMDFT      TELAPSE        6.93 TCPU        5.08
 CYC   2 ETOT(AU) -5.700881002030E+02 DETOT  3.92E-01 tst  2.09E-02 PX  1.55E-01
 TTTTTTTTTTTTTTTTTTTTTTTTTTTTTT DIIS        TELAPSE        6.94 TCPU        5.10
 DIIS TEST: 0.41029E+01 AT SCF   CYCLE   2 - DIIS ACTIVE - HISTORY:     2 CYCLES
 TTTTTTTTTTTTTTTTTTTTTTTTTTTTTT FDIK        TELAPSE        7.12 TCPU        5.27
 POSSIBLY CONDUCTING STATE - EFERMI(AU) -1.5234337E-01 (RES. CHARGE  6.69E-11;IT. 10)
 TTTTTTTTTTTTTTTTTTTTTTTTTTTTTT PDIG        TELAPSE        7.21 TCPU        5.36
 CHARGE NORMALIZATION FACTOR   1.00000000
 TOTAL ATOMIC CHARGES:
   5.8753693   6.2227966   6.2227965   5.8893622   6.0537230   5.8753637
   5.8893628   5.9694141   6.1466471   6.1466522   6.0384058   6.0425135
   5.9694119   5.6197753   6.0384062
 TTTTTTTTTTTTTTTTTTTTTTTTTTTTTT MOQGAD      TELAPSE        7.21 TCPU        5.36
 TTTTTTTTTTTTTTTTTTTTTTTTTTTTTT SHELLXN     TELAPSE        7.94 TCPU        6.10
 TTTTTTTTTTTTTTTTTTTTTTTTTTTTTT MONMO3      TELAPSE        8.06 TCPU        6.21
 NUMERICALLY INTEGRATED DENSITY     89.9997980102
 TTTTTTTTTTTTTTTTTTTTTTTTTTTTTT NUMDFT      TELAPSE        8.42 TCPU        6.57
 CYC   3 ETOT(AU) -5.704886344309E+02 DETOT -4.01E-01 tst  9.93E-02 PX  1.96E-01
 TTTTTTTTTTTTTTTTTTTTTTTTTTTTTT DIIS        TELAPSE        8.45 TCPU        6.60
 DIIS TEST: 0.78517E+00 AT SCF   CYCLE   3 - DIIS ACTIVE - HISTORY:     3 CYCLES
 TTTTTTTTTTTTTTTTTTTTTTTTTTTTTT FDIK        TELAPSE        8.61 TCPU        6.76
 INSULATING STATE
 TOP OF VALENCE BANDS -    BAND     45; K   13; EIG -1.8234918E-01 AU
 TOP OF VALENCE BANDS -    BAND     45; K    1; EIG -1.8296380E-01 AU
 BOTTOM OF VIRTUAL BANDS - BAND     46; K   20; EIG -1.8087045E-01 AU
 INDIRECT ENERGY BAND GAP:   0.0402 eV
 BOTTOM OF VIRTUAL BANDS - BAND     46; K    1; EIG -1.5290988E-01 AU
 TTTTTTTTTTTTTTTTTTTTTTTTTTTTTT PDIG        TELAPSE        8.66 TCPU        6.81
 CHARGE NORMALIZATION FACTOR   1.00000000
 TOTAL ATOMIC CHARGES:
   6.0993253   6.0472449   6.0472448   5.9796915   5.9924676   6.0993200
   5.9796921   5.8752740   5.9200436   5.9200486   5.8700983   5.9371371
   5.8752725   6.4870410   5.8700986
 TTTTTTTTTTTTTTTTTTTTTTTTTTTTTT MOQGAD      TELAPSE        8.66 TCPU        6.81
 TTTTTTTTTTTTTTTTTTTTTTTTTTTTTT SHELLXN     TELAPSE        9.40 TCPU        7.54
 TTTTTTTTTTTTTTTTTTTTTTTTTTTTTT MONMO3      TELAPSE        9.51 TCPU        7.66
 NUMERICALLY INTEGRATED DENSITY     89.9998108345
 TTTTTTTTTTTTTTTTTTTTTTTTTTTTTT NUMDFT      TELAPSE        9.76 TCPU        7.91
 CYC   4 ETOT(AU) -5.705167321894E+02 DETOT -2.81E-02 tst  9.87E-03 PX  1.96E-01
 TTTTTTTTTTTTTTTTTTTTTTTTTTTTTT DIIS        TELAPSE        9.78 TCPU        7.92
 DIIS TEST: 0.58858E+00 AT SCF   CYCLE   4 - DIIS ACTIVE - HISTORY:     4 CYCLES
 TTTTTTTTTTTTTTTTTTTTTTTTTTTTTT FDIK        TELAPSE        9.94 TCPU        8.08
 POSSIBLY CONDUCTING STATE - EFERMI(AU) -1.7802075E-01 (RES. CHARGE  1.13E-12;IT. 12)
 TTTTTTTTTTTTTTTTTTTTTTTTTTTTTT PDIG        TELAPSE       10.03 TCPU        8.17
 CHARGE NORMALIZATION FACTOR   1.00000000
 TOTAL ATOMIC CHARGES:
   6.0559938   5.9950223   5.9950223   6.0358571   6.0009163   6.0559884
   6.0358576   5.9416203   5.9574834   5.9574884   6.0866787   6.0474665
   5.9416185   5.8063073   6.0866791
 TTTTTTTTTTTTTTTTTTTTTTTTTTTTTT MOQGAD      TELAPSE       10.03 TCPU        8.17
 TTTTTTTTTTTTTTTTTTTTTTTTTTTTTT SHELLXN     TELAPSE       10.76 TCPU        8.91
 TTTTTTTTTTTTTTTTTTTTTTTTTTTTTT MONMO3      TELAPSE       10.88 TCPU        9.02
 NUMERICALLY INTEGRATED DENSITY     89.9998120282
 TTTTTTTTTTTTTTTTTTTTTTTTTTTTTT NUMDFT      TELAPSE       11.24 TCPU        9.39
 CYC   5 ETOT(AU) -5.705815403667E+02 DETOT -6.48E-02 tst  2.87E-03 PX  1.37E-01
 TTTTTTTTTTTTTTTTTTTTTTTTTTTTTT DIIS        TELAPSE       11.26 TCPU        9.40
 DIIS TEST: 0.87255E-01 AT SCF   CYCLE   5 - DIIS ACTIVE - HISTORY:     5 CYCLES
 TTTTTTTTTTTTTTTTTTTTTTTTTTTTTT FDIK        TELAPSE       11.44 TCPU        9.58
 POSSIBLY CONDUCTING STATE - EFERMI(AU) -1.8350416E-01 (RES. CHARGE  4.46E-11;IT.  8)
 TTTTTTTTTTTTTTTTTTTTTTTTTTTTTT PDIG        TELAPSE       11.52 TCPU        9.66
 CHARGE NORMALIZATION FACTOR   1.00000000
 TOTAL ATOMIC CHARGES:
   5.9981284   6.0088763   6.0088762   5.9584010   6.0128962   5.9981230
   5.9584016   5.9735597   5.9917745   5.9917795   6.0628119   5.9780715
   5.9735578   6.0219301   6.0628123
 TTTTTTTTTTTTTTTTTTTTTTTTTTTTTT MOQGAD      TELAPSE       11.52 TCPU        9.66
 TTTTTTTTTTTTTTTTTTTTTTTTTTTTTT SHELLXN     TELAPSE       12.26 TCPU       10.40
 TTTTTTTTTTTTTTTTTTTTTTTTTTTTTT MONMO3      TELAPSE       12.37 TCPU       10.51
 NUMERICALLY INTEGRATED DENSITY     89.9998133171
 TTTTTTTTTTTTTTTTTTTTTTTTTTTTTT NUMDFT      TELAPSE       12.63 TCPU       10.77
 CYC   6 ETOT(AU) -5.705913096608E+02 DETOT -9.77E-03 tst  3.75E-04 PX  3.97E-02
 TTTTTTTTTTTTTTTTTTTTTTTTTTTTTT DIIS        TELAPSE       12.64 TCPU       10.78
 DIIS TEST: 0.56705E-02 AT SCF   CYCLE   6 - DIIS ACTIVE - HISTORY:     6 CYCLES
 TTTTTTTTTTTTTTTTTTTTTTTTTTTTTT FDIK        TELAPSE       12.81 TCPU       10.94
 POSSIBLY CONDUCTING STATE - EFERMI(AU) -1.8296222E-01 (RES. CHARGE  3.01E-10;IT. 12)
 TTTTTTTTTTTTTTTTTTTTTTTTTTTTTT PDIG        TELAPSE       12.90 TCPU       11.03
 CHARGE NORMALIZATION FACTOR   1.00000000
 TOTAL ATOMIC CHARGES:
   5.9989070   6.0084721   6.0084720   5.9718498   6.0109824   5.9989017
   5.9718504   5.9616108   5.9896460   5.9896510   6.0291792   6.0530089
   5.9616093   6.0166797   6.0291796
 TTTTTTTTTTTTTTTTTTTTTTTTTTTTTT MOQGAD      TELAPSE       12.90 TCPU       11.03
 TTTTTTTTTTTTTTTTTTTTTTTTTTTTTT SHELLXN     TELAPSE       13.63 TCPU       11.77
 TTTTTTTTTTTTTTTTTTTTTTTTTTTTTT MONMO3      TELAPSE       13.74 TCPU       11.88
 NUMERICALLY INTEGRATED DENSITY     89.9998127376
 TTTTTTTTTTTTTTTTTTTTTTTTTTTTTT NUMDFT      TELAPSE       14.10 TCPU       12.23
 CYC   7 ETOT(AU) -5.705912936811E+02 DETOT  1.60E-05 tst  2.54E-05 PX  1.67E-02
 TTTTTTTTTTTTTTTTTTTTTTTTTTTTTT DIIS        TELAPSE       14.12 TCPU       12.25
 DIIS TEST: 0.56834E-02 AT SCF   CYCLE   7 - DIIS ACTIVE - HISTORY:     7 CYCLES
 TTTTTTTTTTTTTTTTTTTTTTTTTTTTTT FDIK        TELAPSE       14.30 TCPU       12.43
 POSSIBLY CONDUCTING STATE - EFERMI(AU) -1.8240254E-01 (RES. CHARGE  2.21E-12;IT. 14)
 TTTTTTTTTTTTTTTTTTTTTTTTTTTTTT PDIG        TELAPSE       14.39 TCPU       12.52
 CHARGE NORMALIZATION FACTOR   1.00000000
 TOTAL ATOMIC CHARGES:
   6.0099779   6.0214557   6.0214556   5.9761082   6.0030941   6.0099725
   5.9761087   5.9516251   5.9845146   5.9845196   6.0526632   6.0057605
   5.9516229   5.9984580   6.0526634
 TTTTTTTTTTTTTTTTTTTTTTTTTTTTTT MOQGAD      TELAPSE       14.39 TCPU       12.52
 TTTTTTTTTTTTTTTTTTTTTTTTTTTTTT SHELLXN     TELAPSE       15.12 TCPU       13.25
 TTTTTTTTTTTTTTTTTTTTTTTTTTTTTT MONMO3      TELAPSE       15.24 TCPU       13.37
 NUMERICALLY INTEGRATED DENSITY     89.9998128899
 TTTTTTTTTTTTTTTTTTTTTTTTTTTTTT NUMDFT      TELAPSE       15.49 TCPU       13.62
 CYC   8 ETOT(AU) -5.705918539676E+02 DETOT -5.60E-04 tst  1.16E-05 PX  1.02E-02
 TTTTTTTTTTTTTTTTTTTTTTTTTTTTTT DIIS        TELAPSE       15.51 TCPU       13.64
 DIIS TEST: 0.74732E-03 AT SCF   CYCLE   8 - DIIS ACTIVE - HISTORY:     8 CYCLES
 TTTTTTTTTTTTTTTTTTTTTTTTTTTTTT FDIK        TELAPSE       15.69 TCPU       13.81
 POSSIBLY CONDUCTING STATE - EFERMI(AU) -1.8225092E-01 (RES. CHARGE  1.35E-13;IT. 10)
 TTTTTTTTTTTTTTTTTTTTTTTTTTTTTT PDIG        TELAPSE       15.77 TCPU       13.90
 CHARGE NORMALIZATION FACTOR   1.00000000
 TOTAL ATOMIC CHARGES:
   6.0111638   6.0135467   6.0135466   5.9737301   6.0097655   6.0111584
   5.9737307   5.9687864   5.9866443   5.9866491   6.0440812   6.0052191
   5.9687854   5.9891106   6.0440820
 TTTTTTTTTTTTTTTTTTTTTTTTTTTTTT MOQGAD      TELAPSE       15.78 TCPU       13.90
 TTTTTTTTTTTTTTTTTTTTTTTTTTTTTT SHELLXN     TELAPSE       16.51 TCPU       14.64
 TTTTTTTTTTTTTTTTTTTTTTTTTTTTTT MONMO3      TELAPSE       16.62 TCPU       14.75
 NUMERICALLY INTEGRATED DENSITY     89.9998127533
 TTTTTTTTTTTTTTTTTTTTTTTTTTTTTT NUMDFT      TELAPSE       16.88 TCPU       15.00
 CYC   9 ETOT(AU) -5.705918782278E+02 DETOT -2.43E-05 tst  1.74E-05 PX  3.77E-03
 TTTTTTTTTTTTTTTTTTTTTTTTTTTTTT DIIS        TELAPSE       16.90 TCPU       15.02
 DIIS TEST: 0.64041E-03 AT SCF   CYCLE   9 - DIIS ACTIVE - HISTORY:     9 CYCLES
 TTTTTTTTTTTTTTTTTTTTTTTTTTTTTT FDIK        TELAPSE       17.08 TCPU       15.20
 POSSIBLY CONDUCTING STATE - EFERMI(AU) -1.8240540E-01 (RES. CHARGE  4.72E-10;IT. 10)
 TTTTTTTTTTTTTTTTTTTTTTTTTTTTTT PDIG        TELAPSE       17.16 TCPU       15.29
 CHARGE NORMALIZATION FACTOR   1.00000000
 TOTAL ATOMIC CHARGES:
   6.0085122   6.0100901   6.0100901   5.9734063   6.0113778   6.0085068
   5.9734067   5.9571972   5.9895004   5.9895056   6.0532166   6.0102011
   5.9571946   5.9945781   6.0532165
 TTTTTTTTTTTTTTTTTTTTTTTTTTTTTT MOQGAD      TELAPSE       17.17 TCPU       15.29
 TTTTTTTTTTTTTTTTTTTTTTTTTTTTTT SHELLXN     TELAPSE       17.90 TCPU       16.02
 TTTTTTTTTTTTTTTTTTTTTTTTTTTTTT MONMO3      TELAPSE       18.01 TCPU       16.13
 NUMERICALLY INTEGRATED DENSITY     89.9998127687
 TTTTTTTTTTTTTTTTTTTTTTTTTTTTTT NUMDFT      TELAPSE       18.27 TCPU       16.39
 CYC  10 ETOT(AU) -5.705919301564E+02 DETOT -5.19E-05 tst  6.17E-06 PX  1.93E-03
 TTTTTTTTTTTTTTTTTTTTTTTTTTTTTT DIIS        TELAPSE       18.29 TCPU       16.41
 DIIS TEST: 0.15453E-03 AT SCF   CYCLE  10 - DIIS ACTIVE - HISTORY:    10 CYCLES
 TTTTTTTTTTTTTTTTTTTTTTTTTTTTTT FDIK        TELAPSE       18.47 TCPU       16.58
 POSSIBLY CONDUCTING STATE - EFERMI(AU) -1.8242761E-01 (RES. CHARGE  3.36E-10;IT.  8)
 TTTTTTTTTTTTTTTTTTTTTTTTTTTTTT PDIG        TELAPSE       18.55 TCPU       16.67
 CHARGE NORMALIZATION FACTOR   1.00000000
 TOTAL ATOMIC CHARGES:
   6.0072064   6.0136373   6.0136372   5.9737086   6.0091423   6.0072011
   5.9737092   5.9613542   5.9859248   5.9859297   6.0504699   6.0104667
   5.9613528   5.9957893   6.0504706
 TTTTTTTTTTTTTTTTTTTTTTTTTTTTTT MOQGAD      TELAPSE       18.55 TCPU       16.67
 TTTTTTTTTTTTTTTTTTTTTTTTTTTTTT SHELLXN     TELAPSE       19.29 TCPU       17.41
 TTTTTTTTTTTTTTTTTTTTTTTTTTTTTT MONMO3      TELAPSE       19.40 TCPU       17.52
 NUMERICALLY INTEGRATED DENSITY     89.9998128138
 TTTTTTTTTTTTTTTTTTTTTTTTTTTTTT NUMDFT      TELAPSE       19.77 TCPU       17.88
 CYC  11 ETOT(AU) -5.705919513715E+02 DETOT -2.12E-05 tst  2.50E-07 PX  1.02E-03
 TTTTTTTTTTTTTTTTTTTTTTTTTTTTTT DIIS        TELAPSE       19.80 TCPU       17.91
 DIIS TEST: 0.56766E-05 AT SCF   CYCLE  11 - DIIS ACTIVE - HISTORY:    11 CYCLES
 TTTTTTTTTTTTTTTTTTTTTTTTTTTTTT FDIK        TELAPSE       19.96 TCPU       18.08
 POSSIBLY CONDUCTING STATE - EFERMI(AU) -1.8245636E-01 (RES. CHARGE  6.25E-13;IT. 10)
 TTTTTTTTTTTTTTTTTTTTTTTTTTTTTT PDIG        TELAPSE       20.05 TCPU       18.16
 CHARGE NORMALIZATION FACTOR   1.00000000
 TOTAL ATOMIC CHARGES:
   6.0075110   6.0128990   6.0128990   5.9734161   6.0078627   6.0075056
   5.9734165   5.9613186   5.9871251   5.9871304   6.0506548   6.0104971
   5.9613155   5.9957942   6.0506544
 TTTTTTTTTTTTTTTTTTTTTTTTTTTTTT MOQGAD      TELAPSE       20.05 TCPU       18.16
 TTTTTTTTTTTTTTTTTTTTTTTTTTTTTT SHELLXN     TELAPSE       20.79 TCPU       18.90
 TTTTTTTTTTTTTTTTTTTTTTTTTTTTTT MONMO3      TELAPSE       20.90 TCPU       19.01
 NUMERICALLY INTEGRATED DENSITY     89.9998128169
 TTTTTTTTTTTTTTTTTTTTTTTTTTTTTT NUMDFT      TELAPSE       21.15 TCPU       19.27
 CYC  12 ETOT(AU) -5.705919513712E+02 DETOT  2.96E-10 tst  1.65E-08 PX  1.97E-04
 TTTTTTTTTTTTTTTTTTTTTTTTTTTTTT DIIS        TELAPSE       21.18 TCPU       19.29
 DIIS TEST: 0.12200E-05 AT SCF   CYCLE  12 - DIIS ACTIVE - HISTORY:    12 CYCLES
 TTTTTTTTTTTTTTTTTTTTTTTTTTTTTT FDIK        TELAPSE       21.36 TCPU       19.47
 POSSIBLY CONDUCTING STATE - EFERMI(AU) -1.8245999E-01 (RES. CHARGE  2.42E-13;IT.  8)
 TTTTTTTTTTTTTTTTTTTTTTTTTTTTTT PDIG        TELAPSE       21.44 TCPU       19.55
 CHARGE NORMALIZATION FACTOR   1.00000000
 TOTAL ATOMIC CHARGES:
   6.0075581   6.0131528   6.0131524   5.9734775   6.0084130   6.0075529
   5.9734786   5.9612990   5.9865964   5.9866004   6.0504983   6.0100333
   5.9613009   5.9963855   6.0505010
 TTTTTTTTTTTTTTTTTTTTTTTTTTTTTT MOQGAD      TELAPSE       21.44 TCPU       19.55
 TTTTTTTTTTTTTTTTTTTTTTTTTTTTTT SHELLXN     TELAPSE       22.18 TCPU       20.29
 +++ ENERGIES IN A.U. +++
 ::: EXT EL-POLE                                  -7.9639237555694E+02
 ::: EXT EL-SPHEROPOLE                             6.1955619226411E+00
 ::: BIELET ZONE E-E                               1.1916649004209E+03
 ::: TOTAL E-E                                     4.0146808678659E+02
 ::: TOTAL E-N + N-E                              -1.5820484673164E+03
 ::: TOTAL N-N                                     1.2294889384076E+02
 ::: KINETIC ENERGY                                5.6734815234013E+02
 ::: PSEUDO TOTAL   ENERGY                        -4.9028333434890E+02
 ::: VIRIAL COEFFICIENT                            1.0728654724837E+00
 TTTTTTTTTTTTTTTTTTTTTTTTTTTTTT MONMO3      TELAPSE       22.29 TCPU       20.40
 NUMERICALLY INTEGRATED DENSITY     89.9998128251
 TTTTTTTTTTTTTTTTTTTTTTTTTTTTTT NUMDFT      TELAPSE       22.54 TCPU       20.65
 CYC  13 ETOT(AU) -5.705919515862E+02 DETOT -2.15E-07 tst  2.98E-09 PX  1.97E-04

 == SCF ENDED - CONVERGENCE ON ENERGY      E(AU) -5.7059195158624E+02 CYCLES  13


 ENERGY EXPRESSION=HARTREE+FOCK EXCH*0.00000+(PBE        EXCH)*1.00000+PBE        CORR


 TOTAL ENERGY(DFT)(AU)( 13) -5.7059195158624E+02 DE-2.2E-07 tester 3.0E-09
 TTTTTTTTTTTTTTTTTTTTTTTTTTTTTT EDFT        TELAPSE       22.55 TCPU       20.65
 EIGENVECTORS IN FORTRAN UNIT 10
 TTTTTTTTTTTTTTTTTTTTTTTTTTTTTT END         TELAPSE       22.68 TCPU       20.79
 EEEEEEEEEE TERMINATION  DATE 31 10 2022 TIME 17:18:45.8
NODE    0 CPU TIME =        20.787
    TOTAL CPU TIME =      2695.651
Note: The following floating-point exceptions are signalling: IEEE_UNDERFLOW_FLAG IEEE_DENORMAL
Note: The following floating-point exceptions are signalling: IEEE_UNDERFLOW_FLAG IEEE_DENORMAL
Note: The following floating-point exceptions are signalling: IEEE_UNDERFLOW_FLAG IEEE_DENORMAL
Note: The following floating-point exceptions are signalling: IEEE_UNDERFLOW_FLAG IEEE_DENORMAL
Note: The following floating-point exceptions are signalling: IEEE_UNDERFLOW_FLAG IEEE_DENORMAL
Note: The following floating-point exceptions are signalling: IEEE_UNDERFLOW_FLAG IEEE_DENORMAL
Note: The following floating-point exceptions are signalling: IEEE_UNDERFLOW_FLAG IEEE_DENORMAL
Note: The following floating-point exceptions are signalling: IEEE_UNDERFLOW_FLAG IEEE_DENORMAL
Note: The following floating-point exceptions are signalling: IEEE_UNDERFLOW_FLAG IEEE_DENORMAL
Note: The following floating-point exceptions are signalling: IEEE_UNDERFLOW_FLAG IEEE_DENORMAL
Note: The following floating-point exceptions are signalling: IEEE_UNDERFLOW_FLAG IEEE_DENORMAL
Note: The following floating-point exceptions are signalling: IEEE_UNDERFLOW_FLAG IEEE_DENORMAL
Note: The following floating-point exceptions are signalling: IEEE_UNDERFLOW_FLAG IEEE_DENORMAL
Note: The following floating-point exceptions are signalling: IEEE_UNDERFLOW_FLAG IEEE_DENORMAL
Note: The following floating-point exceptions are signalling: IEEE_UNDERFLOW_FLAG IEEE_DENORMAL
Note: The following floating-point exceptions are signalling: IEEE_UNDERFLOW_FLAG IEEE_DENORMAL
Note: The following floating-point exceptions are signalling: IEEE_UNDERFLOW_FLAG IEEE_DENORMAL
Note: The following floating-point exceptions are signalling: IEEE_UNDERFLOW_FLAG IEEE_DENORMAL
Note: The following floating-point exceptions are signalling: IEEE_UNDERFLOW_FLAG IEEE_DENORMAL
Note: The following floating-point exceptions are signalling: IEEE_UNDERFLOW_FLAG IEEE_DENORMAL
Note: The following floating-point exceptions are signalling: IEEE_UNDERFLOW_FLAG IEEE_DENORMAL
Note: The following floating-point exceptions are signalling: IEEE_UNDERFLOW_FLAG IEEE_DENORMAL
Note: The following floating-point exceptions are signalling: IEEE_UNDERFLOW_FLAG IEEE_DENORMAL
Note: The following floating-point exceptions are signalling: IEEE_UNDERFLOW_FLAG IEEE_DENORMAL
Note: The following floating-point exceptions are signalling: IEEE_UNDERFLOW_FLAG IEEE_DENORMAL
Note: The following floating-point exceptions are signalling: IEEE_UNDERFLOW_FLAG IEEE_DENORMAL
Note: The following floating-point exceptions are signalling: IEEE_UNDERFLOW_FLAG IEEE_DENORMAL
Note: The following floating-point exceptions are signalling: IEEE_UNDERFLOW_FLAG IEEE_DENORMAL
Note: The following floating-point exceptions are signalling: IEEE_UNDERFLOW_FLAG IEEE_DENORMAL
Note: The following floating-point exceptions are signalling: IEEE_UNDERFLOW_FLAG IEEE_DENORMAL
Note: The following floating-point exceptions are signalling: IEEE_UNDERFLOW_FLAG IEEE_DENORMAL
Note: The following floating-point exceptions are signalling: IEEE_UNDERFLOW_FLAG IEEE_DENORMAL
Note: The following floating-point exceptions are signalling: IEEE_UNDERFLOW_FLAG IEEE_DENORMAL
Note: The following floating-point exceptions are signalling: IEEE_UNDERFLOW_FLAG IEEE_DENORMAL
Note: The following floating-point exceptions are signalling: IEEE_UNDERFLOW_FLAG IEEE_DENORMAL
Note: The following floating-point exceptions are signalling: IEEE_UNDERFLOW_FLAG IEEE_DENORMAL
Note: The following floating-point exceptions are signalling: IEEE_UNDERFLOW_FLAG IEEE_DENORMAL
Note: The following floating-point exceptions are signalling: IEEE_UNDERFLOW_FLAG IEEE_DENORMAL
Note: The following floating-point exceptions are signalling: IEEE_UNDERFLOW_FLAG IEEE_DENORMAL
Note: The following floating-point exceptions are signalling: IEEE_UNDERFLOW_FLAG IEEE_DENORMAL
Note: The following floating-point exceptions are signalling: IEEE_UNDERFLOW_FLAG IEEE_DENORMAL
Note: The following floating-point exceptions are signalling: IEEE_UNDERFLOW_FLAG IEEE_DENORMAL
Note: The following floating-point exceptions are signalling: IEEE_UNDERFLOW_FLAG IEEE_DENORMAL
Note: The following floating-point exceptions are signalling: IEEE_UNDERFLOW_FLAG IEEE_DENORMAL
Note: The following floating-point exceptions are signalling: IEEE_UNDERFLOW_FLAG IEEE_DENORMAL
Note: The following floating-point exceptions are signalling: IEEE_UNDERFLOW_FLAG IEEE_DENORMAL
Note: The following floating-point exceptions are signalling: IEEE_UNDERFLOW_FLAG IEEE_DENORMAL
Note: The following floating-point exceptions are signalling: IEEE_UNDERFLOW_FLAG IEEE_DENORMAL
Note: The following floating-point exceptions are signalling: IEEE_UNDERFLOW_FLAG IEEE_DENORMAL
Note: The following floating-point exceptions are signalling: IEEE_UNDERFLOW_FLAG IEEE_DENORMAL
Note: The following floating-point exceptions are signalling: IEEE_UNDERFLOW_FLAG IEEE_DENORMAL
Note: The following floating-point exceptions are signalling: IEEE_UNDERFLOW_FLAG IEEE_DENORMAL
Note: The following floating-point exceptions are signalling: IEEE_UNDERFLOW_FLAG IEEE_DENORMAL
Note: The following floating-point exceptions are signalling: IEEE_UNDERFLOW_FLAG IEEE_DENORMAL
Note: The following floating-point exceptions are signalling: IEEE_UNDERFLOW_FLAG IEEE_DENORMAL
Note: The following floating-point exceptions are signalling: IEEE_UNDERFLOW_FLAG IEEE_DENORMAL
Note: The following floating-point exceptions are signalling: IEEE_UNDERFLOW_FLAG IEEE_DENORMAL
Note: The following floating-point exceptions are signalling: IEEE_UNDERFLOW_FLAG IEEE_DENORMAL
Note: The following floating-point exceptions are signalling: IEEE_UNDERFLOW_FLAG IEEE_DENORMAL
Note: The following floating-point exceptions are signalling: IEEE_UNDERFLOW_FLAG IEEE_DENORMAL
Note: The following floating-point exceptions are signalling: IEEE_UNDERFLOW_FLAG IEEE_DENORMAL
Note: The following floating-point exceptions are signalling: IEEE_UNDERFLOW_FLAG IEEE_DENORMAL
Note: The following floating-point exceptions are signalling: IEEE_UNDERFLOW_FLAG IEEE_DENORMAL
Note: The following floating-point exceptions are signalling: IEEE_UNDERFLOW_FLAG IEEE_DENORMAL
Note: The following floating-point exceptions are signalling: IEEE_UNDERFLOW_FLAG IEEE_DENORMAL
Note: The following floating-point exceptions are signalling: IEEE_UNDERFLOW_FLAG IEEE_DENORMAL
Note: The following floating-point exceptions are signalling: IEEE_UNDERFLOW_FLAG IEEE_DENORMAL
Note: The following floating-point exceptions are signalling: IEEE_UNDERFLOW_FLAG IEEE_DENORMAL
Note: The following floating-point exceptions are signalling: IEEE_UNDERFLOW_FLAG IEEE_DENORMAL
Note: The following floating-point exceptions are signalling: IEEE_UNDERFLOW_FLAG IEEE_DENORMAL
Note: The following floating-point exceptions are signalling: IEEE_UNDERFLOW_FLAG IEEE_DENORMAL
Note: The following floating-point exceptions are signalling: IEEE_UNDERFLOW_FLAG IEEE_DENORMAL
Note: The following floating-point exceptions are signalling: IEEE_UNDERFLOW_FLAG IEEE_DENORMAL
Note: The following floating-point exceptions are signalling: IEEE_UNDERFLOW_FLAG IEEE_DENORMAL
Note: The following floating-point exceptions are signalling: IEEE_UNDERFLOW_FLAG IEEE_DENORMAL
Note: The following floating-point exceptions are signalling: IEEE_UNDERFLOW_FLAG IEEE_DENORMAL
Note: The following floating-point exceptions are signalling: IEEE_UNDERFLOW_FLAG IEEE_DENORMAL
Note: The following floating-point exceptions are signalling: IEEE_UNDERFLOW_FLAG IEEE_DENORMAL
Note: The following floating-point exceptions are signalling: IEEE_UNDERFLOW_FLAG IEEE_DENORMAL
Note: The following floating-point exceptions are signalling: IEEE_UNDERFLOW_FLAG IEEE_DENORMAL
Note: The following floating-point exceptions are signalling: IEEE_UNDERFLOW_FLAG IEEE_DENORMAL
Note: The following floating-point exceptions are signalling: IEEE_UNDERFLOW_FLAG IEEE_DENORMAL
Note: The following floating-point exceptions are signalling: IEEE_UNDERFLOW_FLAG IEEE_DENORMAL
Note: The following floating-point exceptions are signalling: IEEE_UNDERFLOW_FLAG IEEE_DENORMAL
Note: The following floating-point exceptions are signalling: IEEE_UNDERFLOW_FLAG IEEE_DENORMAL
Note: The following floating-point exceptions are signalling: IEEE_UNDERFLOW_FLAG IEEE_DENORMAL
Note: The following floating-point exceptions are signalling: IEEE_UNDERFLOW_FLAG IEEE_DENORMAL
Note: The following floating-point exceptions are signalling: IEEE_UNDERFLOW_FLAG IEEE_DENORMAL
Note: The following floating-point exceptions are signalling: IEEE_UNDERFLOW_FLAG IEEE_DENORMAL
Note: The following floating-point exceptions are signalling: IEEE_UNDERFLOW_FLAG IEEE_DENORMAL
Note: The following floating-point exceptions are signalling: IEEE_UNDERFLOW_FLAG IEEE_DENORMAL
Note: The following floating-point exceptions are signalling: IEEE_UNDERFLOW_FLAG IEEE_DENORMAL
Note: The following floating-point exceptions are signalling: IEEE_UNDERFLOW_FLAG IEEE_DENORMAL
Note: The following floating-point exceptions are signalling: IEEE_UNDERFLOW_FLAG IEEE_DENORMAL
Note: The following floating-point exceptions are signalling: IEEE_UNDERFLOW_FLAG IEEE_DENORMAL
Note: The following floating-point exceptions are signalling: IEEE_UNDERFLOW_FLAG IEEE_DENORMAL
Note: The following floating-point exceptions are signalling: IEEE_UNDERFLOW_FLAG IEEE_DENORMAL
Note: The following floating-point exceptions are signalling: IEEE_UNDERFLOW_FLAG IEEE_DENORMAL
Note: The following floating-point exceptions are signalling: IEEE_UNDERFLOW_FLAG IEEE_DENORMAL
Note: The following floating-point exceptions are signalling: IEEE_UNDERFLOW_FLAG IEEE_DENORMAL
Note: The following floating-point exceptions are signalling: IEEE_UNDERFLOW_FLAG IEEE_DENORMAL
Note: The following floating-point exceptions are signalling: IEEE_UNDERFLOW_FLAG IEEE_DENORMAL
Note: The following floating-point exceptions are signalling: IEEE_UNDERFLOW_FLAG IEEE_DENORMAL
Note: The following floating-point exceptions are signalling: IEEE_UNDERFLOW_FLAG IEEE_DENORMAL
Note: The following floating-point exceptions are signalling: IEEE_UNDERFLOW_FLAG IEEE_DENORMAL
Note: The following floating-point exceptions are signalling: IEEE_UNDERFLOW_FLAG IEEE_DENORMAL
Note: The following floating-point exceptions are signalling: IEEE_UNDERFLOW_FLAG IEEE_DENORMAL
Note: The following floating-point exceptions are signalling: IEEE_UNDERFLOW_FLAG IEEE_DENORMAL
Note: The following floating-point exceptions are signalling: IEEE_UNDERFLOW_FLAG IEEE_DENORMAL
Note: The following floating-point exceptions are signalling: IEEE_UNDERFLOW_FLAG IEEE_DENORMAL
Note: The following floating-point exceptions are signalling: IEEE_UNDERFLOW_FLAG IEEE_DENORMAL
Note: The following floating-point exceptions are signalling: IEEE_UNDERFLOW_FLAG IEEE_DENORMAL
Note: The following floating-point exceptions are signalling: IEEE_UNDERFLOW_FLAG IEEE_DENORMAL
Note: The following floating-point exceptions are signalling: IEEE_UNDERFLOW_FLAG IEEE_DENORMAL
Note: The following floating-point exceptions are signalling: IEEE_UNDERFLOW_FLAG IEEE_DENORMAL
Note: The following floating-point exceptions are signalling: IEEE_UNDERFLOW_FLAG IEEE_DENORMAL
Note: The following floating-point exceptions are signalling: IEEE_UNDERFLOW_FLAG IEEE_DENORMAL
Note: The following floating-point exceptions are signalling: IEEE_UNDERFLOW_FLAG IEEE_DENORMAL
Note: The following floating-point exceptions are signalling: IEEE_UNDERFLOW_FLAG IEEE_DENORMAL
Note: The following floating-point exceptions are signalling: IEEE_UNDERFLOW_FLAG IEEE_DENORMAL
Note: The following floating-point exceptions are signalling: IEEE_UNDERFLOW_FLAG IEEE_DENORMAL
Note: The following floating-point exceptions are signalling: IEEE_UNDERFLOW_FLAG IEEE_DENORMAL
Note: The following floating-point exceptions are signalling: IEEE_UNDERFLOW_FLAG IEEE_DENORMAL
Note: The following floating-point exceptions are signalling: IEEE_UNDERFLOW_FLAG IEEE_DENORMAL
Note: The following floating-point exceptions are signalling: IEEE_UNDERFLOW_FLAG IEEE_DENORMAL
Note: The following floating-point exceptions are signalling: IEEE_UNDERFLOW_FLAG IEEE_DENORMAL
Note: The following floating-point exceptions are signalling: IEEE_UNDERFLOW_FLAG IEEE_DENORMAL
Note: The following floating-point exceptions are signalling: IEEE_UNDERFLOW_FLAG IEEE_DENORMAL
end_date Mon Oct 31 17:18:46 GMT 2022
 
TEMPORARY          SAVED (in /mnt/lustre/a2fs-work2/work/e05/e05/bcamino/quantum_computing/test_model)
fort.34            graphene_3v_E.gui 1310     Oct 31 17:18
fort.9             graphene_3v_E.f9  1354736  Oct 31 17:18
fort.98            graphene_3v_E.f98 3539759  Oct 31 17:18
 
Disk usage:<du -m>
6	/mnt/lustre/a2fs-work2/work/e05/e05/bcamino/quantum_computing/test_model/tmp_graphene_3v_E_
</du -m>
Filesystem                                          1K-blocks          Used     Available Use% Mounted on
10.253.102.2@o2ib1:10.253.102.3@o2ib1:/cls01097 3582178503216 1809002988220 1736977637400  52% /mnt/lustre/a2fs-work2
10.253.102.2@o2ib1:10.253.102.3@o2ib1:/cls01097 3582178503216 1809002988220 1736977637400  52% /mnt/lustre/a2fs-work2
