date:                Mon Oct 31 17:23:06 GMT 2022
hostname:            nid002533
system:              Linux nid002533 4.12.14-197.78_9.1.64-cray_shasta_c #1 SMP Wed Aug 25 14:56:40 UTC 2021 (4e2a900) x86_64 x86_64 x86_64 GNU/Linux
user:                bcamino
input:               /mnt/lustre/a2fs-work2/work/e05/e05/bcamino/quantum_computing/test_model/graphene_3v_L.d12
output:              /mnt/lustre/a2fs-work2/work/e05/e05/bcamino/quantum_computing/test_model/graphene_3v_L.out
executable script:   /work/e05/e05/bcamino/runCRYSTAL/Pcry_slurm
executable:          Pcrystal
Command:             srun --hint=nomultithread --distribution=block:block Pcrystal
Slurm JobID:         
temporary directory: /mnt/lustre/a2fs-work2/work/e05/e05/bcamino/quantum_computing/test_model/tmp_graphene_3v_L_      
input data /mnt/lustre/a2fs-work2/work/e05/e05/bcamino/quantum_computing/test_model/graphene_3v_L.d12
Final
EXTERNAL
SYMMREMO
END
6 8
0 0 6 2.0 1.0
  13575.349682      0.00022245814352
  2035.2333680      0.00172327382520
  463.22562359      0.00892557153140
  131.20019598      0.03572798450200
  42.853015891      0.11076259931000
  15.584185766      0.24295627626000
0 0 2 2.0 1.0
  6.2067138508      0.41440263448000
  2.5764896527      0.23744968655000
0 0 1 0.0 1.0
  0.4941102000      1.00000000000000
0 0 1 0.0 1.0
  0.1644071000      1.00000000000000
0 2 4 2.0 1.0
  34.697232244      0.00533336578050
  7.9582622826      0.03586410909200
  2.3780826883      0.14215873329000
  0.8143320818      0.34270471845000
0 2 1 0.0 1.0
  0.5662417100      1.00000000000000
0 2 1 0.0 1.0
  0.1973545000      1.00000000000000
0 3 1 0.0 1.0
  0.5791584200      1.00000000000000
99 0
ENDBS
DFT
PBE  
ENDDFT
TOLINTEG
8 8 8 8 16
SCFDIR
SHRINK
8 16  
MAXCYCLE
200
TOLDEE
9 
ENDSCF
input data /mnt/lustre/a2fs-work2/work/e05/e05/bcamino/quantum_computing/test_model/graphene_3v_L.gui
         128 PROCESSORS WORKING

         
 *******************************************************************************
 *                                                                             *
 *                               CRYSTAL17                                     *
 *                      public : 1.0.2 - March 1st, 2018 STFC/Archer2 build    *
 *                       HTTP://WWW.CRYSTAL.UNITO.IT                           *
 *                                                                             *
 *                              MAIN AUTHORS                                   *
 *                                                                             *
 *  R. DOVESI(1,11), V.R. SAUNDERS(2), C. ROETTI(1,11), R. ORLANDO(1,11),      *
 *  C.M. ZICOVICH-WILSON(1,3), F. PASCALE(4), B. CIVALLERI(1,11),              *
 *  K. DOLL(5), N.M. HARRISON(2,6), I.J. BUSH(7), Ph. D'ARCO(8),               *
 *  M. LLUNELL(9), M. CAUSA'(10), Y. NOEL(8), L. MASCHIO(1,11), A. ERBA(1,11)  *
 *  M. RE'RAT(14), S. CASASSA(1,11)                                            *
 *                                                                             *
 *        CONTRIBUTIONS TO THE CODE HAVE ALSO BEEN GIVEN BY                    *
 *                                                                             *
 *  M. FERRABONE(1,11), M. DE LA PIERRE(1,11), M. FERRERO(1,11),               *
 *  J. BAIMA(1,11), E. ALBANESE(1,11), M.F. PEINTINGER(12), R. BAST(13),       *
 *  B. KIRTMAN(15), V. LACIVITA(1,11), R. DEMICHELIS(1,16)                     *
 *  G. BRANDEBURG(17), S. SALUSTRO(1,11), G. SANSONE(1,11)                     *
 *  M.T. RUGGIERO(18)                                                          *
 *                                                                             *
 * (1) THEORETICAL CHEMISTRY GROUP - UNIVERSITA' DI TORINO - TORINO (ITALY)    *
 * (2) COMPUTATIONAL SCIENCE & ENGINEERING DEPARTMENT - STFC DARESBURY (UK)    *
 * (3) UNIVERSIDAD AUTONOMA DEL ESTADO DE MORELOS - CUERNAVACA (MEXICO)        *
 * (4) UNIVERSITE' DE LORRAINE - NANCY (FRANCE)                                *
 * (5) UNIVERSITAET STUTTGART- STUTTGART (GERMANY)                             *
 * (6) IMPERIAL COLLEGE - LONDON (UK)                                          *
 * (7) OXFORD E-RESEARCH CENTRE - OXFORD (UK)                                  *
 * (8) UPMC - SORBONNE UNIVERSITES - PARIS (FRANCE)                            *
 * (9) UNIVERSIDAD DE BARCELONA - BARCELONA (SPAIN)                            *
 *(10) UNIVERSITA' DI NAPOLI "FEDERICO II" - NAPOLI (ITALY)                    *
 *(11) NIS - NANOSTRUCTURED INTERFACES AND SURFACES - TORINO (ITALY)           *
 *(12) MPI FUER CHEMISCHE ENERGIEKONVERSION - MUELHEIM AN DER RUHR (GERMANY)   *
 *(13) UNIVERSITY OF TROMSO - TROMSO (NORWAY)                                  *
 *(14) UNIVERSITE' DE PAU ET DES PAYS DE L'ADOUR - PAU (FRANCE)                *
 *(15) UNIVERSITY OF CALIFORNIA SANTA BARBARA - SANTA BARBARA (USA)            *
 *(16) CURTIN UNIVERSITY - PERTH (AUSTRALIA)                                   *
 *(17) UNIVERSITY COLLEGE LONDON - LONDON (UK)                                 *
 *(18) CAMBRIDGE UNIVERSITY - CAMBRIDGE (UK)                                   *
 *                                                                             *
 *******************************************************************************
 EEEEEEEEEE STARTING  DATE 31 10 2022 TIME 17:23:10.6
 Final                                                                           

 GEOMETRY INPUT FROM EXTERNAL FILE (FORTRAN UNIT 34)
 3D - CRYSTAL 

 *******************************************************************************
 LATTICE PARAMETERS  (ANGSTROMS AND DEGREES) - PRIMITIVE CELL
       A          B          C        ALPHA      BETA     GAMMA        VOLUME
    7.40317    7.40317    8.68504    90.00000  90.00000 120.00000    412.228566
 INFORMATION **** CHKGRP **** SPGR WITH NO INVERSION

 NUMBER OF IRREDUCIBLE ATOMS IN THE CELL:   15

 CARTESIAN COORDINATES (ANGSTROM) - IRREDUCIBLE ATOMS AND SYMMETRY RELATED

 AT.IRR.  AT  AT.N.          X                   Y                   Z
     1     1     6    2.467724141366E+00  2.849482394607E+00  2.605511400000E+00
     2     2     6    3.701586212049E+00  4.986594190562E+00  2.605511400000E+00
     3     3     6    2.467724141366E+00 -1.424741197304E+00  2.605511400000E+00
     4     4     6    3.701586212049E+00  7.123705986520E-01  2.605511400000E+00
     5     5     6    3.701586212049E+00 -3.561852993259E+00  2.605511400000E+00
     6     6     6    6.169310353416E+00  7.123705986520E-01  2.605511400000E+00
     7     7     6    1.233862070683E+00 -7.123705986520E-01  2.605511400000E+00
     8     8     6    2.467724141366E+00  1.424741197304E+00  2.605511400000E+00
     9     9     6    3.701586212049E+00  3.561852993259E+00  2.605511400000E+00
    10    10     6    2.467724141366E+00 -2.849482394607E+00  2.605511400000E+00
    11    11     6    3.701586212049E+00 -7.123705986520E-01  2.605511400000E+00
    12    12     6    4.935448282733E+00  1.424741197304E+00  2.605511400000E+00
    13    13     6    3.701586212049E+00 -4.986594190562E+00  2.605511400000E+00
    14    14     6    4.935448282733E+00 -2.849482394607E+00  2.605511400000E+00
    15    15     6    6.169310353416E+00 -7.123705986520E-01  2.605511400000E+00

 SPACE  GROUP  N.                     :    1
 NUMBER OF SYMMETRY OPERATORS         :    1
 *******************************************************************************
 LATTICE PARAMETERS (ANGSTROMS AND DEGREES) - BOHR = 0.5291772083 ANGSTROM
 PRIMITIVE CELL - CENTRING CODE 1/0 VOLUME=   412.228566 - DENSITY  0.725 g/cm^3
         A              B              C           ALPHA      BETA       GAMMA 
     7.40317242     7.40317242     8.68503800    90.000000  90.000000 120.000000
 *******************************************************************************
 ATOMS IN THE ASYMMETRIC UNIT   15 - ATOMS IN THE UNIT CELL:   15
     ATOM                 X/A                 Y/B                 Z/C    
 *******************************************************************************
      1 T   6 C     1.111111111111E-01 -4.444444444445E-01  3.000000000000E-01
      2 T   6 C     1.111111111111E-01 -1.111111111111E-01  3.000000000000E-01
      3 T   6 C     4.444444444445E-01  2.222222222222E-01  3.000000000000E-01
      4 T   6 C     4.444444444444E-01 -4.444444444444E-01  3.000000000000E-01
      5 T   6 C    -2.222222222222E-01  2.222222222222E-01  3.000000000000E-01
      6 T   6 C    -2.222222222221E-01 -1.111111111110E-01  3.000000000000E-01
      7 T   6 C     2.222222222222E-01  1.111111111111E-01  3.000000000000E-01
      8 T   6 C     2.222222222222E-01  4.444444444445E-01  3.000000000000E-01
      9 T   6 C     2.222222222222E-01 -2.222222222222E-01  3.000000000000E-01
     10 T   6 C    -4.444444444445E-01  1.111111111111E-01  3.000000000000E-01
     11 T   6 C    -4.444444444444E-01  4.444444444444E-01  3.000000000000E-01
     12 T   6 C    -4.444444444443E-01 -2.222222222221E-01  3.000000000000E-01
     13 T   6 C    -1.111111111111E-01  1.111111111111E-01  3.000000000000E-01
     14 T   6 C    -1.111111111110E-01  4.444444444446E-01  3.000000000000E-01
     15 T   6 C    -1.111111111110E-01 -2.222222222221E-01  3.000000000000E-01

 T = ATOM BELONGING TO THE ASYMMETRIC UNIT
 *******************************************************************************
 * GEOMETRY EDITING - INPUT COORDINATES ARE GIVEN IN ANGSTROM         
 *******************************************************************************

 USE OF SYMMETRY WILL BE SUBSEQUENTLY SUSPENDED

 GCALCO - MAX INDICES DIRECT LATTICE VECTOR    16    16    12
 NO.OF VECTORS CREATED 6999 STARS  379 RMAX   166.99060 BOHR

 GEOMETRY FOR WAVE FUNCTION - DIMENSIONALITY OF THE SYSTEM    3
 (NON PERIODIC DIRECTION: LATTICE PARAMETER FORMALLY SET TO 500)
 *******************************************************************************
 LATTICE PARAMETERS (ANGSTROMS AND DEGREES) - BOHR = 0.5291772083 ANGSTROM
 PRIMITIVE CELL - CENTRING CODE 1/0 VOLUME=   412.228566 - DENSITY  0.725 g/cm^3
         A              B              C           ALPHA      BETA       GAMMA 
     7.40317242     7.40317242     8.68503800    90.000000  90.000000 120.000000
 *******************************************************************************
 ATOMS IN THE ASYMMETRIC UNIT   15 - ATOMS IN THE UNIT CELL:   15
     ATOM                 X/A                 Y/B                 Z/C    
 *******************************************************************************
      1 T   6 C     1.111111111111E-01 -4.444444444445E-01  3.000000000000E-01
      2 T   6 C     1.111111111111E-01 -1.111111111111E-01  3.000000000000E-01
      3 T   6 C     4.444444444445E-01  2.222222222222E-01  3.000000000000E-01
      4 T   6 C     4.444444444444E-01 -4.444444444444E-01  3.000000000000E-01
      5 T   6 C    -2.222222222222E-01  2.222222222222E-01  3.000000000000E-01
      6 T   6 C    -2.222222222221E-01 -1.111111111110E-01  3.000000000000E-01
      7 T   6 C     2.222222222222E-01  1.111111111111E-01  3.000000000000E-01
      8 T   6 C     2.222222222222E-01  4.444444444445E-01  3.000000000000E-01
      9 T   6 C     2.222222222222E-01 -2.222222222222E-01  3.000000000000E-01
     10 T   6 C    -4.444444444445E-01  1.111111111111E-01  3.000000000000E-01
     11 T   6 C    -4.444444444444E-01  4.444444444444E-01  3.000000000000E-01
     12 T   6 C    -4.444444444443E-01 -2.222222222221E-01  3.000000000000E-01
     13 T   6 C    -1.111111111111E-01  1.111111111111E-01  3.000000000000E-01
     14 T   6 C    -1.111111111110E-01  4.444444444446E-01  3.000000000000E-01
     15 T   6 C    -1.111111111110E-01 -2.222222222221E-01  3.000000000000E-01

 T = ATOM BELONGING TO THE ASYMMETRIC UNIT

 ****    1 SYMMOPS - TRANSLATORS IN FRACTIONAL UNITS
 **** MATRICES AND TRANSLATORS IN THE CRYSTALLOGRAPHIC REFERENCE FRAME
   V INV                    ROTATION MATRICES                   TRANSLATORS
   1   1  1.00  0.00  0.00  0.00  1.00  0.00  0.00  0.00  1.00  0.00  0.00  0.00

 DIRECT LATTICE VECTORS CARTESIAN COMPONENTS (ANGSTROM)
          X                    Y                    Z
   0.370158621205E+01  -0.641133538787E+01   0.000000000000E+00
   0.370158621205E+01   0.641133538787E+01   0.000000000000E+00
   0.000000000000E+00   0.000000000000E+00   0.868503800000E+01


 CARTESIAN COORDINATES - PRIMITIVE CELL
 *******************************************************************************
 *      ATOM          X(ANGSTROM)         Y(ANGSTROM)         Z(ANGSTROM)
 *******************************************************************************
    1     6 C     2.467724141366E+00  2.849482394607E+00  2.605511400000E+00
    2     6 C     3.701586212049E+00  4.986594190562E+00  2.605511400000E+00
    3     6 C     2.467724141366E+00 -1.424741197304E+00  2.605511400000E+00
    4     6 C     3.701586212049E+00  7.123705986520E-01  2.605511400000E+00
    5     6 C     3.701586212049E+00 -3.561852993259E+00  2.605511400000E+00
    6     6 C     6.169310353416E+00  7.123705986520E-01  2.605511400000E+00
    7     6 C     1.233862070683E+00 -7.123705986520E-01  2.605511400000E+00
    8     6 C     2.467724141366E+00  1.424741197304E+00  2.605511400000E+00
    9     6 C     3.701586212049E+00  3.561852993259E+00  2.605511400000E+00
   10     6 C     2.467724141366E+00 -2.849482394607E+00  2.605511400000E+00
   11     6 C     3.701586212049E+00 -7.123705986520E-01  2.605511400000E+00
   12     6 C     4.935448282733E+00  1.424741197304E+00  2.605511400000E+00
   13     6 C     3.701586212049E+00 -4.986594190562E+00  2.605511400000E+00
   14     6 C     4.935448282733E+00 -2.849482394607E+00  2.605511400000E+00
   15     6 C     6.169310353416E+00 -7.123705986520E-01  2.605511400000E+00

 *******************************************************************************
 LOCAL ATOMIC FUNCTIONS BASIS SET
 *******************************************************************************
   ATOM   X(AU)   Y(AU)   Z(AU)  N. TYPE  EXPONENT  S COEF   P COEF   D/F/G COEF
 *******************************************************************************
   1 C    4.663   5.385   4.924
                                  1 S  
                                         1.358E+04 2.225E-04 0.000E+00 0.000E+00
                                         2.035E+03 1.723E-03 0.000E+00 0.000E+00
                                         4.632E+02 8.926E-03 0.000E+00 0.000E+00
                                         1.312E+02 3.573E-02 0.000E+00 0.000E+00
                                         4.285E+01 1.108E-01 0.000E+00 0.000E+00
                                         1.558E+01 2.430E-01 0.000E+00 0.000E+00
                                  2 S  
                                         6.207E+00 4.144E-01 0.000E+00 0.000E+00
                                         2.576E+00 2.374E-01 0.000E+00 0.000E+00
                                  3 S  
                                         4.941E-01 1.000E+00 0.000E+00 0.000E+00
                                  4 S  
                                         1.644E-01 1.000E+00 0.000E+00 0.000E+00
                           5-     7 P  
                                         3.470E+01 0.000E+00 5.333E-03 0.000E+00
                                         7.958E+00 0.000E+00 3.586E-02 0.000E+00
                                         2.378E+00 0.000E+00 1.422E-01 0.000E+00
                                         8.143E-01 0.000E+00 3.427E-01 0.000E+00
                           8-    10 P  
                                         5.662E-01 0.000E+00 1.000E+00 0.000E+00
                          11-    13 P  
                                         1.974E-01 0.000E+00 1.000E+00 0.000E+00
                          14-    18 D  
                                         5.792E-01 0.000E+00 0.000E+00 1.000E+00
   2 C    6.995   9.423   4.924
   3 C    4.663  -2.692   4.924
   4 C    6.995   1.346   4.924
   5 C    6.995  -6.731   4.924
   6 C   11.658   1.346   4.924
   7 C    2.332  -1.346   4.924
   8 C    4.663   2.692   4.924
   9 C    6.995   6.731   4.924
  10 C    4.663  -5.385   4.924
  11 C    6.995  -1.346   4.924
  12 C    9.327   2.692   4.924
  13 C    6.995  -9.423   4.924
  14 C    9.327  -5.385   4.924
  15 C   11.658  -1.346   4.924
 INFORMATION **** SET_MPP **** PCRYSTAL CALCULATION
 INFORMATION **** READM2 **** NEW DEFAULT: FOCK/KS MATRIX MIXING SET TO 30 %
 INFORMATION **** READM2 **** NEW DEFAULT: FULL DIRECT SCF MODE
 INFORMATION **** READM2 **** NEW DEFAULT: COULOMB BIPOLAR BUFFER SET TO 32 Mb
 INFORMATION **** READM2 **** NEW DEFAULT: EXCHANGE BIPOLAR BUFFER SET TO 32 Mb

 *******************************************************************************
 NEW DEFAULT: DFT INTEGRATION GRID INCREASED TO XLGRID
 NEW DEFAULT: DIIS ACCELERATOR ACTIVE
 USE KEYWORD NODIIS TO TURN IT OFF
 *******************************************************************************

 INFORMATION **** TOLINTEG **** COULOMB AND EXCHANGE SERIES TOLERANCES MODIFIED
 INFORMATION **** READM2 **** FULL DIRECT SCF (MONO AND BIEL INT) SELECTED
 INFORMATION **** MAXCYCLE **** MAX NUMBER OF SCF CYCLES SET TO         200
 INFORMATION **** TOLDEE **** SCF TOL ON TOTAL ENERGY SET TO           9
 *******************************************************************************
 N. OF ATOMS PER CELL        15  COULOMB OVERLAP TOL         (T1) 10**   -8
 NUMBER OF SHELLS           120  COULOMB PENETRATION TOL     (T2) 10**   -8
 NUMBER OF AO               270  EXCHANGE OVERLAP TOL        (T3) 10**   20
 N. OF ELECTRONS PER CELL    90  EXCHANGE PSEUDO OVP (F(G))  (T4) 10**   20
 CORE ELECTRONS PER CELL     30  EXCHANGE PSEUDO OVP (P(G))  (T5) 10**   20
 N. OF SYMMETRY OPERATORS     1  POLE ORDER IN MONO ZONE                  4
 *******************************************************************************
 TYPE OF CALCULATION :  RESTRICTED CLOSED SHELL
 KOHN-SHAM HAMILTONIAN

 (EXCHANGE)[CORRELATION] FUNCTIONAL:(PERDEW-BURKE-ERNZERHOF)[PERDEW-BURKE-ERNZERHOF]


 CAPPA:IS1  8;IS2  8;IS3  8; K PTS MONK NET 260; SYMMOPS:K SPACE   2;G SPACE   1

 *******************************************************************************
 MAX NUMBER OF SCF CYCLES     200  CONVERGENCE ON DELTAP        10**-19
 WEIGHT OF F(I) IN F(I+1)      30% CONVERGENCE ON ENERGY        10**- 9
 SHRINK. FACT.(MONKH.)    8  8  8  NUMBER OF K POINTS IN THE IBZ    260
 SHRINKING FACTOR(GILAT NET)   16  NUMBER OF K POINTS(GILAT NET)   2052
 *******************************************************************************
 *** K POINTS COORDINATES (OBLIQUE COORDINATES IN UNITS OF IS =  8)
   1-R(  0  0  0)   2-C(  1  0  0)   3-C(  2  0  0)   4-C(  3  0  0)
   5-R(  4  0  0)   6-C(  0  1  0)   7-C(  1  1  0)   8-C(  2  1  0)
   9-C(  3  1  0)  10-C(  4  1  0)  11-C(  5  1  0)  12-C(  6  1  0)
  13-C(  7  1  0)  14-C(  0  2  0)  15-C(  1  2  0)  16-C(  2  2  0)
  17-C(  3  2  0)  18-C(  4  2  0)  19-C(  5  2  0)  20-C(  6  2  0)
  21-C(  7  2  0)  22-C(  0  3  0)  23-C(  1  3  0)  24-C(  2  3  0)
  25-C(  3  3  0)  26-C(  4  3  0)  27-C(  5  3  0)  28-C(  6  3  0)
  29-C(  7  3  0)  30-R(  0  4  0)  31-C(  1  4  0)  32-C(  2  4  0)
  33-C(  3  4  0)  34-R(  4  4  0)  35-C(  0  0  1)  36-C(  1  0  1)
  37-C(  2  0  1)  38-C(  3  0  1)  39-C(  4  0  1)  40-C(  5  0  1)
  41-C(  6  0  1)  42-C(  7  0  1)  43-C(  0  1  1)  44-C(  1  1  1)
  45-C(  2  1  1)  46-C(  3  1  1)  47-C(  4  1  1)  48-C(  5  1  1)
  49-C(  6  1  1)  50-C(  7  1  1)  51-C(  0  2  1)  52-C(  1  2  1)
  53-C(  2  2  1)  54-C(  3  2  1)  55-C(  4  2  1)  56-C(  5  2  1)
  57-C(  6  2  1)  58-C(  7  2  1)  59-C(  0  3  1)  60-C(  1  3  1)
  61-C(  2  3  1)  62-C(  3  3  1)  63-C(  4  3  1)  64-C(  5  3  1)
  65-C(  6  3  1)  66-C(  7  3  1)  67-C(  0  4  1)  68-C(  1  4  1)
  69-C(  2  4  1)  70-C(  3  4  1)  71-C(  4  4  1)  72-C(  5  4  1)
  73-C(  6  4  1)  74-C(  7  4  1)  75-C(  0  5  1)  76-C(  1  5  1)
  77-C(  2  5  1)  78-C(  3  5  1)  79-C(  4  5  1)  80-C(  5  5  1)
  81-C(  6  5  1)  82-C(  7  5  1)  83-C(  0  6  1)  84-C(  1  6  1)
  85-C(  2  6  1)  86-C(  3  6  1)  87-C(  4  6  1)  88-C(  5  6  1)
  89-C(  6  6  1)  90-C(  7  6  1)  91-C(  0  7  1)  92-C(  1  7  1)
  93-C(  2  7  1)  94-C(  3  7  1)  95-C(  4  7  1)  96-C(  5  7  1)
  97-C(  6  7  1)  98-C(  7  7  1)  99-C(  0  0  2) 100-C(  1  0  2)
 101-C(  2  0  2) 102-C(  3  0  2) 103-C(  4  0  2) 104-C(  5  0  2)
 105-C(  6  0  2) 106-C(  7  0  2) 107-C(  0  1  2) 108-C(  1  1  2)
 109-C(  2  1  2) 110-C(  3  1  2) 111-C(  4  1  2) 112-C(  5  1  2)
 113-C(  6  1  2) 114-C(  7  1  2) 115-C(  0  2  2) 116-C(  1  2  2)
 117-C(  2  2  2) 118-C(  3  2  2) 119-C(  4  2  2) 120-C(  5  2  2)
 121-C(  6  2  2) 122-C(  7  2  2) 123-C(  0  3  2) 124-C(  1  3  2)
 125-C(  2  3  2) 126-C(  3  3  2) 127-C(  4  3  2) 128-C(  5  3  2)
 129-C(  6  3  2) 130-C(  7  3  2) 131-C(  0  4  2) 132-C(  1  4  2)
 133-C(  2  4  2) 134-C(  3  4  2) 135-C(  4  4  2) 136-C(  5  4  2)
 137-C(  6  4  2) 138-C(  7  4  2) 139-C(  0  5  2) 140-C(  1  5  2)
 141-C(  2  5  2) 142-C(  3  5  2) 143-C(  4  5  2) 144-C(  5  5  2)
 145-C(  6  5  2) 146-C(  7  5  2) 147-C(  0  6  2) 148-C(  1  6  2)
 149-C(  2  6  2) 150-C(  3  6  2) 151-C(  4  6  2) 152-C(  5  6  2)
 153-C(  6  6  2) 154-C(  7  6  2) 155-C(  0  7  2) 156-C(  1  7  2)
 157-C(  2  7  2) 158-C(  3  7  2) 159-C(  4  7  2) 160-C(  5  7  2)
 161-C(  6  7  2) 162-C(  7  7  2) 163-C(  0  0  3) 164-C(  1  0  3)
 165-C(  2  0  3) 166-C(  3  0  3) 167-C(  4  0  3) 168-C(  5  0  3)
 169-C(  6  0  3) 170-C(  7  0  3) 171-C(  0  1  3) 172-C(  1  1  3)
 173-C(  2  1  3) 174-C(  3  1  3) 175-C(  4  1  3) 176-C(  5  1  3)
 177-C(  6  1  3) 178-C(  7  1  3) 179-C(  0  2  3) 180-C(  1  2  3)
 181-C(  2  2  3) 182-C(  3  2  3) 183-C(  4  2  3) 184-C(  5  2  3)
 185-C(  6  2  3) 186-C(  7  2  3) 187-C(  0  3  3) 188-C(  1  3  3)
 189-C(  2  3  3) 190-C(  3  3  3) 191-C(  4  3  3) 192-C(  5  3  3)
 193-C(  6  3  3) 194-C(  7  3  3) 195-C(  0  4  3) 196-C(  1  4  3)
 197-C(  2  4  3) 198-C(  3  4  3) 199-C(  4  4  3) 200-C(  5  4  3)
 201-C(  6  4  3) 202-C(  7  4  3) 203-C(  0  5  3) 204-C(  1  5  3)
 205-C(  2  5  3) 206-C(  3  5  3) 207-C(  4  5  3) 208-C(  5  5  3)
 209-C(  6  5  3) 210-C(  7  5  3) 211-C(  0  6  3) 212-C(  1  6  3)
 213-C(  2  6  3) 214-C(  3  6  3) 215-C(  4  6  3) 216-C(  5  6  3)
 217-C(  6  6  3) 218-C(  7  6  3) 219-C(  0  7  3) 220-C(  1  7  3)
 221-C(  2  7  3) 222-C(  3  7  3) 223-C(  4  7  3) 224-C(  5  7  3)
 225-C(  6  7  3) 226-C(  7  7  3) 227-R(  0  0  4) 228-C(  1  0  4)
 229-C(  2  0  4) 230-C(  3  0  4) 231-R(  4  0  4) 232-C(  0  1  4)
 233-C(  1  1  4) 234-C(  2  1  4) 235-C(  3  1  4) 236-C(  4  1  4)
 237-C(  5  1  4) 238-C(  6  1  4) 239-C(  7  1  4) 240-C(  0  2  4)
 241-C(  1  2  4) 242-C(  2  2  4) 243-C(  3  2  4) 244-C(  4  2  4)
 245-C(  5  2  4) 246-C(  6  2  4) 247-C(  7  2  4) 248-C(  0  3  4)
 249-C(  1  3  4) 250-C(  2  3  4) 251-C(  3  3  4) 252-C(  4  3  4)
 253-C(  5  3  4) 254-C(  6  3  4) 255-C(  7  3  4) 256-R(  0  4  4)
 257-C(  1  4  4) 258-C(  2  4  4) 259-C(  3  4  4) 260-R(  4  4  4)

 DIRECT LATTICE VECTORS COMPON. (A.U.)     RECIP. LATTICE VECTORS COMPON. (A.U.) 
        X            Y            Z              X            Y            Z
    6.9949842  -12.1156680    0.0000000      0.4491208   -0.2593000    0.0000000
    6.9949842   12.1156680    0.0000000      0.4491208    0.2593000   -0.0000000
    0.0000000    0.0000000   16.4123433     -0.0000000    0.0000000    0.3828329

 DISK SPACE FOR EIGENVECTORS (FTN 10)    37324800 REALS

 SYMMETRY ADAPTION OF THE BLOCH FUNCTIONS DISABLED
 TTTTTTTTTTTTTTTTTTTTTTTTTTTTTT gordsh1     TELAPSE        2.62 TCPU        1.51

 MATRIX SIZE: P(G)  110232, F(G)   55296, P(G) IRR   55581, F(G) IRR   55581
 MAX G-VECTOR INDEX FOR 1- AND 2-ELECTRON INTEGRALS  27

 TTTTTTTTTTTTTTTTTTTTTTTTTTTTTT INPUT       TELAPSE        2.64 TCPU        1.53

 NEIGHBORS OF THE NON-EQUIVALENT ATOMS

 N = NUMBER OF NEIGHBORS AT DISTANCE R
    ATOM  N     R/ANG      R/AU   NEIGHBORS (ATOM LABELS AND CELL INDICES)
   1 C    3     1.4247     2.6924    8 C    0 0 0    9 C    0 0 0   14 C   -1 0 0
   1 C    3     2.4677     4.6633    2 C    0 0 0    4 C    0 0 0    5 C   -1 0 0
   1 C    3     2.8495     5.3847   12 C    0 0 0   13 C   -1 0 0   15 C   -1 0 0
   1 C    6     3.7695     7.1233    7 C    0 0 0    7 C    0 1 0   10 C   -1 0 0
                                    10 C    0 1 0   11 C    0 0 0   11 C   -1 0 0
   1 C    6     4.2742     8.0771    3 C    0 0 0    3 C   -1 0 0    3 C    0 1 0
                                     6 C    0 0 0    6 C   -1-1 0    6 C   -1 0 0
   1 C    3     4.9354     9.3266    2 C    0-1 0    4 C   -1 0 0    5 C    0 1 0

   2 C    3     1.4247     2.6924    7 C    0 1 0    9 C    0 0 0   15 C   -1 0 0
   2 C    3     2.4677     4.6633    1 C    0 0 0    3 C    0 1 0    6 C   -1 0 0
   2 C    3     2.8495     5.3847   10 C    0 1 0   13 C   -1 1 0   14 C   -1 0 0
   2 C    6     3.7695     7.1233    8 C    0 0 0    8 C    0 1 0   11 C   -1 0 0
                                    11 C    0 1 0   12 C    0 0 0   12 C   -1 0 0
   2 C    6     4.2742     8.0771    4 C    0 0 0    4 C   -1 0 0    4 C    0 1 0
                                     5 C   -1 0 0    5 C    0 1 0    5 C   -1 1 0
   2 C    3     4.9354     9.3266    1 C    0 1 0    3 C   -1 0 0    6 C    0 0 0

   3 C    3     1.4247     2.6924    7 C    0 0 0   10 C    0 0 0   11 C    0 0 0
   3 C    3     2.4677     4.6633    2 C    0-1 0    4 C    0 0 0    5 C    0 0 0
   3 C    3     2.8495     5.3847    8 C    0 0 0    9 C    0-1 0   14 C    0 0 0
   3 C    6     3.7695     7.1233   12 C    0 0 0   12 C    0-1 0   13 C    0 0 0
                                    13 C   -1 0 0   15 C    0 0 0   15 C   -1-1 0
   3 C    6     4.2742     8.0771    1 C    0 0 0    1 C    1 0 0    1 C    0-1 0
                                     6 C    0 0 0    6 C   -1-1 0    6 C    0-1 0
   3 C    3     4.9354     9.3266    2 C    1 0 0    4 C    0-1 0    5 C   -1 0 0

   4 C    3     1.4247     2.6924    8 C    0 0 0   11 C    0 0 0   12 C    0 0 0
   4 C    3     2.4677     4.6633    1 C    0 0 0    3 C    0 0 0    6 C    0 0 0
   4 C    3     2.8495     5.3847    7 C    0 0 0    9 C    0 0 0   15 C    0 0 0
   4 C    6     3.7695     7.1233   10 C    0 0 0   10 C    0 1 0   13 C   -1 0 0
                                    13 C    0 1 0   14 C    0 0 0   14 C   -1 0 0
   4 C    6     4.2742     8.0771    2 C    0 0 0    2 C    1 0 0    2 C    0-1 0
                                     5 C    0 0 0    5 C   -1 0 0    5 C    0 1 0
   4 C    3     4.9354     9.3266    1 C    1 0 0    3 C    0 1 0    6 C   -1-1 0

   5 C    3     1.4247     2.6924   10 C    0 0 0   13 C    0 0 0   14 C    0 0 0
   5 C    3     2.4677     4.6633    1 C    1 0 0    3 C    0 0 0    6 C    0-1 0
   5 C    3     2.8495     5.3847    8 C    1 0 0   11 C    0 0 0   12 C    0-1 0
   5 C    6     3.7695     7.1233    7 C    0 0 0    7 C    1 0 0    9 C    1 0 0
                                     9 C    0-1 0   15 C    0 0 0   15 C    0-1 0
   5 C    6     4.2742     8.0771    2 C    1 0 0    2 C    0-1 0    2 C    1-1 0
                                     4 C    0 0 0    4 C    1 0 0    4 C    0-1 0
   5 C    3     4.9354     9.3266    1 C    0-1 0    3 C    1 0 0    6 C    0 0 0

   6 C    3     1.4247     2.6924   12 C    0 0 0   13 C    0 1 0   15 C    0 0 0
   6 C    3     2.4677     4.6633    2 C    1 0 0    4 C    0 0 0    5 C    0 1 0
   6 C    3     2.8495     5.3847    7 C    1 1 0   10 C    0 1 0   11 C    0 0 0
   6 C    6     3.7695     7.1233    8 C    0 0 0    8 C    1 1 0    9 C    0 0 0
                                     9 C    1 0 0   14 C    0 0 0   14 C    0 1 0
   6 C    6     4.2742     8.0771    1 C    0 0 0    1 C    1 1 0    1 C    1 0 0
                                     3 C    0 0 0    3 C    1 1 0    3 C    0 1 0
   6 C    3     4.9354     9.3266    2 C    0 0 0    4 C    1 1 0    5 C    0 0 0

   7 C    2     1.4247     2.6924    2 C    0-1 0    3 C    0 0 0
   7 C    6     2.4677     4.6633    8 C    0 0 0    9 C    0-1 0   10 C    0 0 0
                                    11 C    0 0 0   13 C   -1 0 0   15 C   -1-1 0
   7 C    2     2.8495     5.3847    4 C    0 0 0    6 C   -1-1 0
   7 C    4     3.7695     7.1233    1 C    0 0 0    1 C    0-1 0    5 C    0 0 0
                                     5 C   -1 0 0
   7 C    6     4.2742     8.0771   12 C    0 0 0   12 C   -1-1 0   12 C    0-1 0
                                    14 C    0 0 0   14 C   -1-1 0   14 C   -1 0 0
   7 C    6     4.9354     9.3266    8 C    0-1 0    9 C    0 0 0   10 C   -1 0 0
                                    11 C   -1-1 0   13 C    0 0 0   15 C    0 0 0

   8 C    2     1.4247     2.6924    1 C    0 0 0    4 C    0 0 0
   8 C    6     2.4677     4.6633    7 C    0 0 0    9 C    0 0 0   11 C    0 0 0
                                    12 C    0 0 0   13 C   -1 0 0   14 C   -1 0 0
   8 C    2     2.8495     5.3847    3 C    0 0 0    5 C   -1 0 0
   8 C    4     3.7695     7.1233    2 C    0 0 0    2 C    0-1 0    6 C    0 0 0
                                     6 C   -1-1 0
   8 C    6     4.2742     8.0771   10 C    0 0 0   10 C   -1 0 0   10 C    0 1 0
                                    15 C    0 0 0   15 C   -1-1 0   15 C   -1 0 0
   8 C    6     4.9354     9.3266    7 C    0 1 0    9 C    0-1 0   11 C   -1 0 0
                                    12 C   -1-1 0   13 C    0 1 0   14 C    0 0 0

   9 C    2     1.4247     2.6924    1 C    0 0 0    2 C    0 0 0
   9 C    6     2.4677     4.6633    7 C    0 1 0    8 C    0 0 0   10 C    0 1 0
                                    12 C    0 0 0   14 C   -1 0 0   15 C   -1 0 0
   9 C    2     2.8495     5.3847    3 C    0 1 0    4 C    0 0 0
   9 C    4     3.7695     7.1233    5 C   -1 0 0    5 C    0 1 0    6 C    0 0 0
                                     6 C   -1 0 0
   9 C    6     4.2742     8.0771   11 C    0 0 0   11 C   -1 0 0   11 C    0 1 0
                                    13 C   -1 0 0   13 C    0 1 0   13 C   -1 1 0
   9 C    6     4.9354     9.3266    7 C    0 0 0    8 C    0 1 0   10 C   -1 0 0
                                    12 C   -1 0 0   14 C    0 1 0   15 C    0 0 0

  10 C    2     1.4247     2.6924    3 C    0 0 0    5 C    0 0 0
  10 C    6     2.4677     4.6633    7 C    0 0 0    9 C    0-1 0   11 C    0 0 0
                                    12 C    0-1 0   13 C    0 0 0   14 C    0 0 0
  10 C    2     2.8495     5.3847    2 C    0-1 0    6 C    0-1 0
  10 C    4     3.7695     7.1233    1 C    1 0 0    1 C    0-1 0    4 C    0 0 0
                                     4 C    0-1 0
  10 C    6     4.2742     8.0771    8 C    0 0 0    8 C    1 0 0    8 C    0-1 0
                                    15 C    0 0 0   15 C   -1-1 0   15 C    0-1 0
  10 C    6     4.9354     9.3266    7 C    1 0 0    9 C    1 0 0   11 C    0-1 0
                                    12 C    0 0 0   13 C   -1 0 0   14 C   -1-1 0

  11 C    2     1.4247     2.6924    3 C    0 0 0    4 C    0 0 0
  11 C    6     2.4677     4.6633    7 C    0 0 0    8 C    0 0 0   10 C    0 0 0
                                    12 C    0 0 0   14 C    0 0 0   15 C    0 0 0
  11 C    2     2.8495     5.3847    5 C    0 0 0    6 C    0 0 0
  11 C    4     3.7695     7.1233    1 C    0 0 0    1 C    1 0 0    2 C    1 0 0
                                     2 C    0-1 0
  11 C    6     4.2742     8.0771    9 C    0 0 0    9 C    1 0 0    9 C    0-1 0
                                    13 C    0 0 0   13 C   -1 0 0   13 C    0 1 0
  11 C    6     4.9354     9.3266    7 C    1 1 0    8 C    1 0 0   10 C    0 1 0
                                    12 C    0-1 0   14 C   -1 0 0   15 C   -1-1 0

  12 C    2     1.4247     2.6924    4 C    0 0 0    6 C    0 0 0
  12 C    6     2.4677     4.6633    8 C    0 0 0    9 C    0 0 0   10 C    0 1 0
                                    11 C    0 0 0   13 C    0 1 0   15 C    0 0 0
  12 C    2     2.8495     5.3847    1 C    0 0 0    5 C    0 1 0
  12 C    4     3.7695     7.1233    2 C    0 0 0    2 C    1 0 0    3 C    0 0 0
                                     3 C    0 1 0
  12 C    6     4.2742     8.0771    7 C    0 0 0    7 C    1 1 0    7 C    0 1 0
                                    14 C    0 0 0   14 C   -1 0 0   14 C    0 1 0
  12 C    6     4.9354     9.3266    8 C    1 1 0    9 C    1 0 0   10 C    0 0 0
                                    11 C    0 1 0   13 C   -1 0 0   15 C   -1 0 0

  13 C    2     1.4247     2.6924    5 C    0 0 0    6 C    0-1 0
  13 C    6     2.4677     4.6633    7 C    1 0 0    8 C    1 0 0   10 C    0 0 0
                                    12 C    0-1 0   14 C    0 0 0   15 C    0-1 0
  13 C    2     2.8495     5.3847    1 C    1 0 0    2 C    1-1 0
  13 C    4     3.7695     7.1233    3 C    0 0 0    3 C    1 0 0    4 C    1 0 0
                                     4 C    0-1 0
  13 C    6     4.2742     8.0771    9 C    1 0 0    9 C    0-1 0    9 C    1-1 0
                                    11 C    0 0 0   11 C    1 0 0   11 C    0-1 0
  13 C    6     4.9354     9.3266    7 C    0 0 0    8 C    0-1 0   10 C    1 0 0
                                    12 C    1 0 0   14 C    0-1 0   15 C    0 0 0

  14 C    2     1.4247     2.6924    1 C    1 0 0    5 C    0 0 0
  14 C    6     2.4677     4.6633    8 C    1 0 0    9 C    1 0 0   10 C    0 0 0
                                    11 C    0 0 0   13 C    0 0 0   15 C    0 0 0
  14 C    2     2.8495     5.3847    2 C    1 0 0    3 C    0 0 0
  14 C    4     3.7695     7.1233    4 C    0 0 0    4 C    1 0 0    6 C    0 0 0
                                     6 C    0-1 0
  14 C    6     4.2742     8.0771    7 C    0 0 0    7 C    1 1 0    7 C    1 0 0
                                    12 C    0 0 0   12 C    1 0 0   12 C    0-1 0
  14 C    6     4.9354     9.3266    8 C    0 0 0    9 C    0-1 0   10 C    1 1 0
                                    11 C    1 0 0   13 C    0 1 0   15 C    0-1 0

  15 C    2     1.4247     2.6924    2 C    1 0 0    6 C    0 0 0
  15 C    6     2.4677     4.6633    7 C    1 1 0    9 C    1 0 0   11 C    0 0 0
                                    12 C    0 0 0   13 C    0 1 0   14 C    0 0 0
  15 C    2     2.8495     5.3847    1 C    1 0 0    4 C    0 0 0
  15 C    4     3.7695     7.1233    3 C    0 0 0    3 C    1 1 0    5 C    0 0 0
                                     5 C    0 1 0
  15 C    6     4.2742     8.0771    8 C    0 0 0    8 C    1 1 0    8 C    1 0 0
                                    10 C    0 0 0   10 C    1 1 0   10 C    0 1 0
  15 C    6     4.9354     9.3266    7 C    0 0 0    9 C    0 0 0   11 C    1 1 0
                                    12 C    1 0 0   13 C    0 0 0   14 C    0 1 0


 SYMMETRY ALLOWED INTERNAL DEGREE(S) OF FREEDOM:  42
 TTTTTTTTTTTTTTTTTTTTTTTTTTTTTT SYMM        TELAPSE        2.64 TCPU        1.53
 TTTTTTTTTTTTTTTTTTTTTTTTTTTTTT INT_SCREEN  TELAPSE        2.64 TCPU        1.53
 INFORMATION **** EXCBUF **** EXCH. BIPO BUFFER: WORDS USED =           0

 DFT PARAMETERS

     ATOM       ELECTRONS   NET CHARGE   R(ANGSTROM)
   1   6  C       6.0000      0.0000     0.77000000

 SIZE OF GRID=     505494
 TTTTTTTTTTTTTTTTTTTTTTTTTTTTTT MAKE_GRID2  TELAPSE        2.92 TCPU        1.81
 BECKE WEIGHT FUNCTION
 RADSAFE =     2.00
 TOLERANCES - DENSITY:10**- 6; POTENTIAL:10**- 9; GRID WGT:10**-14

 RADIAL INTEGRATION  - INTERVALS (POINTS,UPPER LIMIT):            1( 75,  4.0*R)

 ANGULAR INTEGRATION - INTERVALS (ACCURACY LEVEL [N. POINTS] UPPER LIMIT):
  1(  4[  86]   0.2)  2(  8[ 194]   0.5)  3( 12[ 350]   0.9)  4( 16[ 974]   3.5)
  5( 12[ 350]9999.0)
 TTTTTTTTTTTTTTTTTTTTTTTTTTTTTT INT_CALC    TELAPSE        2.94 TCPU        1.84
 EEEEEEEEEE INT_CALC TERMINATION  DATE 31 10 2022 TIME 17:23:11.3

 *******************************************************************************
 Final                                                                           
 CRYSTAL - SCF - TYPE OF CALCULATION :  RESTRICTED CLOSED SHELL
 *******************************************************************************

 CAPPA:IS1  8;IS2  8;IS3  8; K PTS MONK NET 260; SYMMOPS:K SPACE   2;G SPACE   1

 TTTTTTTTTTTTTTTTTTTTTTTTTTTTTT SDIK        TELAPSE        3.00 TCPU        1.89

 AAAAAAAAAAAAAAAAAAAAAAAAAAAAAAAAAAAAAAAAAAAAAAAAAAAAAAAAAAAAAAAAAAAAAAAAAAAAAAA
         ATOMIC WAVEFUNCTION(S)


 NUCLEAR CHARGE  6.0  SYMMETRY SPECIES            S    P
 N. ELECTRONS    6.0  NUMBER OF PRIMITIVE GTOS   10    6
                      NUMBER OF CONTRACTED GTOS   4    3
                      NUMBER OF CLOSED SHELLS     2    0
                      OPEN SHELL OCCUPATION       0    2

  ZNUC SCFIT  TOTAL HF ENERGY   KINETIC ENERGY   VIRIAL THEOREM ACCURACY
   6.0  10   -3.768111494E+01  3.771190961E+01 -1.999183423E+00  3.4E-06

 AAAAAAAAAAAAAAAAAAAAAAAAAAAAAAAAAAAAAAAAAAAAAAAAAAAAAAAAAAAAAAAAAAAAAAAAAAAAAAA

 CHARGE NORMALIZATION FACTOR   1.00000000
 TOTAL ATOMIC CHARGES:
   6.0000000   6.0000000   6.0000000   6.0000000   6.0000000   6.0000000
   6.0000000   6.0000000   6.0000000   6.0000000   6.0000000   6.0000000
   6.0000000   6.0000000   6.0000000
 TTTTTTTTTTTTTTTTTTTTTTTTTTTTTT MOQGAD      TELAPSE        3.01 TCPU        1.90
 TTTTTTTTTTTTTTTTTTTTTTTTTTTTTT SHELLXN     TELAPSE        3.57 TCPU        2.46
 TTTTTTTTTTTTTTTTTTTTTTTTTTTTTT MONMO3      TELAPSE        3.71 TCPU        2.59
 NUMERICALLY INTEGRATED DENSITY     89.9998030617
 TTTTTTTTTTTTTTTTTTTTTTTTTTTTTT NUMDFT      TELAPSE        3.86 TCPU        2.74
 CYC   0 ETOT(AU) -5.736108720861E+02 DETOT -5.74E+02 tst  0.00E+00 PX  1.00E+00
 TTTTTTTTTTTTTTTTTTTTTTTTTTTTTT DIIS        TELAPSE        3.87 TCPU        2.75
 TTTTTTTTTTTTTTTTTTTTTTTTTTTTTT FDIK        TELAPSE        4.03 TCPU        2.91
 POSSIBLY CONDUCTING STATE - EFERMI(AU) -2.2167220E-01 (RES. CHARGE  1.71E-13;IT. 18)
 TTTTTTTTTTTTTTTTTTTTTTTTTTTTTT PDIG        TELAPSE        4.16 TCPU        3.04
 CHARGE NORMALIZATION FACTOR   1.00000000
 TOTAL ATOMIC CHARGES:
   6.1302561   6.1302555   6.1302572   6.1302541   6.1302510   6.1302550
   5.9102702   5.9146094   5.9146079   5.9146099   5.9146091   5.9102718
   5.9146111   5.9102727   5.9146091
 TTTTTTTTTTTTTTTTTTTTTTTTTTTTTT MOQGAD      TELAPSE        4.16 TCPU        3.04
 TTTTTTTTTTTTTTTTTTTTTTTTTTTTTT SHELLXN     TELAPSE        4.81 TCPU        3.69
 TTTTTTTTTTTTTTTTTTTTTTTTTTTTTT MONMO3      TELAPSE        4.96 TCPU        3.83
 NUMERICALLY INTEGRATED DENSITY     89.9998318519
 TTTTTTTTTTTTTTTTTTTTTTTTTTTTTT NUMDFT      TELAPSE        5.32 TCPU        4.20
 CYC   1 ETOT(AU) -5.701580017656E+02 DETOT  3.45E+00 tst  0.00E+00 PX  1.00E+00
 TTTTTTTTTTTTTTTTTTTTTTTTTTTTTT DIIS        TELAPSE        5.35 TCPU        4.23
 DIIS TEST: 0.66989E+00 AT SCF   CYCLE   1 - MIX   30 %
 TTTTTTTTTTTTTTTTTTTTTTTTTTTTTT FDIK        TELAPSE        5.52 TCPU        4.39
 POSSIBLY CONDUCTING STATE - EFERMI(AU) -1.8463025E-01 (RES. CHARGE  2.37E-10;IT. 14)
 TTTTTTTTTTTTTTTTTTTTTTTTTTTTTT PDIG        TELAPSE        5.65 TCPU        4.53
 CHARGE NORMALIZATION FACTOR   1.00000000
 TOTAL ATOMIC CHARGES:
   5.6968619   5.6968612   5.6968630   5.6968597   5.6968562   5.6968606
   6.2118619   6.1972090   6.1972051   6.1972074   6.1972077   6.2118631
   6.1972099   6.2118650   6.1972083
 TTTTTTTTTTTTTTTTTTTTTTTTTTTTTT MOQGAD      TELAPSE        5.65 TCPU        4.53
 TTTTTTTTTTTTTTTTTTTTTTTTTTTTTT SHELLXN     TELAPSE        6.31 TCPU        5.18
 TTTTTTTTTTTTTTTTTTTTTTTTTTTTTT MONMO3      TELAPSE        6.45 TCPU        5.33
 NUMERICALLY INTEGRATED DENSITY     89.9998056900
 TTTTTTTTTTTTTTTTTTTTTTTTTTTTTT NUMDFT      TELAPSE        6.71 TCPU        5.58
 CYC   2 ETOT(AU) -5.701893421647E+02 DETOT -3.13E-02 tst  9.52E-03 PX  8.97E-02
 TTTTTTTTTTTTTTTTTTTTTTTTTTTTTT DIIS        TELAPSE        6.72 TCPU        5.60
 DIIS TEST: 0.58146E+00 AT SCF   CYCLE   2 - DIIS ACTIVE - HISTORY:     2 CYCLES
 TTTTTTTTTTTTTTTTTTTTTTTTTTTTTT FDIK        TELAPSE        6.90 TCPU        5.77
 POSSIBLY CONDUCTING STATE - EFERMI(AU) -1.6916498E-01 (RES. CHARGE  6.17E-10;IT. 12)
 TTTTTTTTTTTTTTTTTTTTTTTTTTTTTT PDIG        TELAPSE        7.04 TCPU        5.91
 CHARGE NORMALIZATION FACTOR   1.00000000
 TOTAL ATOMIC CHARGES:
   6.0082976   6.0082971   6.0082990   6.0082954   6.0082922   6.0082963
   5.9742645   6.0045668   6.0045724   6.0045754   6.0045690   5.9742697
   6.0045708   5.9742662   6.0045677
 TTTTTTTTTTTTTTTTTTTTTTTTTTTTTT MOQGAD      TELAPSE        7.04 TCPU        5.92
 TTTTTTTTTTTTTTTTTTTTTTTTTTTTTT SHELLXN     TELAPSE        7.70 TCPU        6.57
 TTTTTTTTTTTTTTTTTTTTTTTTTTTTTT MONMO3      TELAPSE        7.84 TCPU        6.71
 NUMERICALLY INTEGRATED DENSITY     89.9998002149
 TTTTTTTTTTTTTTTTTTTTTTTTTTTTTT NUMDFT      TELAPSE        8.21 TCPU        7.08
 CYC   3 ETOT(AU) -5.702544309937E+02 DETOT -6.51E-02 tst  5.86E-03 PX  4.66E-02
 TTTTTTTTTTTTTTTTTTTTTTTTTTTTTT DIIS        TELAPSE        8.23 TCPU        7.11
 DIIS TEST: 0.35928E-01 AT SCF   CYCLE   3 - DIIS ACTIVE - HISTORY:     3 CYCLES
 TTTTTTTTTTTTTTTTTTTTTTTTTTTTTT FDIK        TELAPSE        8.40 TCPU        7.27
 POSSIBLY CONDUCTING STATE - EFERMI(AU) -1.8799716E-01 (RES. CHARGE  4.77E-12;IT. 14)
 TTTTTTTTTTTTTTTTTTTTTTTTTTTTTT PDIG        TELAPSE        8.52 TCPU        7.39
 CHARGE NORMALIZATION FACTOR   1.00000000
 TOTAL ATOMIC CHARGES:
   5.9337449   5.9337436   5.9337446   5.9337429   5.9337384   5.9337436
   6.1038402   6.0143660   6.0143077   6.0143026   6.0143516   6.1038092
   6.0143569   6.1038506   6.0143572
 TTTTTTTTTTTTTTTTTTTTTTTTTTTTTT MOQGAD      TELAPSE        8.52 TCPU        7.39
 TTTTTTTTTTTTTTTTTTTTTTTTTTTTTT SHELLXN     TELAPSE        9.18 TCPU        8.04
 TTTTTTTTTTTTTTTTTTTTTTTTTTTTTT MONMO3      TELAPSE        9.32 TCPU        8.19
 NUMERICALLY INTEGRATED DENSITY     89.9998083155
 TTTTTTTTTTTTTTTTTTTTTTTTTTTTTT NUMDFT      TELAPSE        9.57 TCPU        8.44
 CYC   4 ETOT(AU) -5.702583484815E+02 DETOT -3.92E-03 tst  2.93E-04 PX  2.94E-02
 TTTTTTTTTTTTTTTTTTTTTTTTTTTTTT DIIS        TELAPSE        9.59 TCPU        8.46
 DIIS TEST: 0.20319E-01 AT SCF   CYCLE   4 - DIIS ACTIVE - HISTORY:     4 CYCLES
 TTTTTTTTTTTTTTTTTTTTTTTTTTTTTT FDIK        TELAPSE        9.77 TCPU        8.63
 POSSIBLY CONDUCTING STATE - EFERMI(AU) -1.8752063E-01 (RES. CHARGE  7.08E-11;IT. 10)
 TTTTTTTTTTTTTTTTTTTTTTTTTTTTTT PDIG        TELAPSE        9.89 TCPU        8.76
 CHARGE NORMALIZATION FACTOR   1.00000000
 TOTAL ATOMIC CHARGES:
   5.9368464   5.9368476   5.9368512   5.9368439   5.9368432   5.9368453
   5.9792710   6.0734016   6.0736227   6.0736500   6.0734373   5.9794300
   6.0734275   5.9792551   6.0734273
 TTTTTTTTTTTTTTTTTTTTTTTTTTTTTT MOQGAD      TELAPSE        9.89 TCPU        8.76
 TTTTTTTTTTTTTTTTTTTTTTTTTTTTTT SHELLXN     TELAPSE       10.54 TCPU        9.41
 TTTTTTTTTTTTTTTTTTTTTTTTTTTTTT MONMO3      TELAPSE       10.69 TCPU        9.55
 NUMERICALLY INTEGRATED DENSITY     89.9998089323
 TTTTTTTTTTTTTTTTTTTTTTTTTTTTTT NUMDFT      TELAPSE       11.04 TCPU        9.91
 CYC   5 ETOT(AU) -5.702582703730E+02 DETOT  7.81E-05 tst  2.82E-04 PX  2.29E-02
 TTTTTTTTTTTTTTTTTTTTTTTTTTTTTT DIIS        TELAPSE       11.07 TCPU        9.94
 DIIS TEST: 0.21283E-01 AT SCF   CYCLE   5 - DIIS ACTIVE - HISTORY:     5 CYCLES
 TTTTTTTTTTTTTTTTTTTTTTTTTTTTTT FDIK        TELAPSE       11.24 TCPU       10.10
 POSSIBLY CONDUCTING STATE - EFERMI(AU) -1.8558866E-01 (RES. CHARGE  1.39E-10;IT. 10)
 TTTTTTTTTTTTTTTTTTTTTTTTTTTTTT PDIG        TELAPSE       11.37 TCPU       10.23
 CHARGE NORMALIZATION FACTOR   1.00000000
 TOTAL ATOMIC CHARGES:
   5.9477977   5.9477940   5.9477907   5.9477995   5.9477857   5.9477991
   6.0313166   6.0369973   6.0361252   6.0360557   6.0369099   6.0306049
   6.0369457   6.0313510   6.0369269
 TTTTTTTTTTTTTTTTTTTTTTTTTTTTTT MOQGAD      TELAPSE       11.37 TCPU       10.23
 TTTTTTTTTTTTTTTTTTTTTTTTTTTTTT SHELLXN     TELAPSE       12.03 TCPU       10.88
 TTTTTTTTTTTTTTTTTTTTTTTTTTTTTT MONMO3      TELAPSE       12.17 TCPU       11.03
 NUMERICALLY INTEGRATED DENSITY     89.9998076218
 TTTTTTTTTTTTTTTTTTTTTTTTTTTTTT NUMDFT      TELAPSE       12.42 TCPU       11.28
 CYC   6 ETOT(AU) -5.702610365532E+02 DETOT -2.77E-03 tst  7.82E-05 PX  8.41E-03
 TTTTTTTTTTTTTTTTTTTTTTTTTTTTTT DIIS        TELAPSE       12.45 TCPU       11.31
 DIIS TEST: 0.51313E-04 AT SCF   CYCLE   6 - DIIS ACTIVE - HISTORY:     6 CYCLES
 TTTTTTTTTTTTTTTTTTTTTTTTTTTTTT FDIK        TELAPSE       12.61 TCPU       11.47
 POSSIBLY CONDUCTING STATE - EFERMI(AU) -1.8562228E-01 (RES. CHARGE  4.37E-11;IT.  8)
 TTTTTTTTTTTTTTTTTTTTTTTTTTTTTT PDIG        TELAPSE       12.74 TCPU       11.60
 CHARGE NORMALIZATION FACTOR   1.00000000
 TOTAL ATOMIC CHARGES:
   5.9474272   5.9473489   5.9473943   5.9473516   5.9474771   5.9473633
   6.0295945   6.0321480   6.0433764   6.0440103   6.0325967   6.0385857
   6.0326224   6.0302021   6.0325016
 TTTTTTTTTTTTTTTTTTTTTTTTTTTTTT MOQGAD      TELAPSE       12.74 TCPU       11.60
 TTTTTTTTTTTTTTTTTTTTTTTTTTTTTT SHELLXN     TELAPSE       13.40 TCPU       12.25
 TTTTTTTTTTTTTTTTTTTTTTTTTTTTTT MONMO3      TELAPSE       13.54 TCPU       12.40
 NUMERICALLY INTEGRATED DENSITY     89.9998074986
 TTTTTTTTTTTTTTTTTTTTTTTTTTTTTT NUMDFT      TELAPSE       13.79 TCPU       12.65
 CYC   7 ETOT(AU) -5.702609822767E+02 DETOT  5.43E-05 tst  1.10E-06 PX  2.29E-03
 TTTTTTTTTTTTTTTTTTTTTTTTTTTTTT DIIS        TELAPSE       13.81 TCPU       12.67
 DIIS TEST: 0.48621E-03 AT SCF   CYCLE   7 - DIIS ACTIVE - HISTORY:     7 CYCLES
 TTTTTTTTTTTTTTTTTTTTTTTTTTTTTT FDIK        TELAPSE       13.99 TCPU       12.84
 POSSIBLY CONDUCTING STATE - EFERMI(AU) -1.8563966E-01 (RES. CHARGE  1.42E-13;IT.  8)
 TTTTTTTTTTTTTTTTTTTTTTTTTTTTTT PDIG        TELAPSE       14.12 TCPU       12.97
 CHARGE NORMALIZATION FACTOR   1.00000000
 TOTAL ATOMIC CHARGES:
   5.9473139   5.9473868   5.9474057   5.9473597   5.9473279   5.9473633
   6.0339778   6.0357956   6.0354368   6.0356681   6.0362028   6.0335635
   6.0359611   6.0331166   6.0361204
 TTTTTTTTTTTTTTTTTTTTTTTTTTTTTT MOQGAD      TELAPSE       14.12 TCPU       12.97
 TTTTTTTTTTTTTTTTTTTTTTTTTTTTTT SHELLXN     TELAPSE       14.78 TCPU       13.63
 TTTTTTTTTTTTTTTTTTTTTTTTTTTTTT MONMO3      TELAPSE       14.92 TCPU       13.77
 NUMERICALLY INTEGRATED DENSITY     89.9998075257
 TTTTTTTTTTTTTTTTTTTTTTTTTTTTTT NUMDFT      TELAPSE       15.29 TCPU       14.14
 CYC   8 ETOT(AU) -5.702610436865E+02 DETOT -6.14E-05 tst  1.01E-06 PX  1.74E-03
 TTTTTTTTTTTTTTTTTTTTTTTTTTTTTT DIIS        TELAPSE       15.32 TCPU       14.17
 DIIS TEST: 0.39483E-05 AT SCF   CYCLE   8 - DIIS ACTIVE - HISTORY:     8 CYCLES
 TTTTTTTTTTTTTTTTTTTTTTTTTTTTTT FDIK        TELAPSE       15.48 TCPU       14.33
 POSSIBLY CONDUCTING STATE - EFERMI(AU) -1.8567425E-01 (RES. CHARGE  1.12E-10;IT.  8)
 TTTTTTTTTTTTTTTTTTTTTTTTTTTTTT PDIG        TELAPSE       15.61 TCPU       14.46
 CHARGE NORMALIZATION FACTOR   1.00000000
 TOTAL ATOMIC CHARGES:
   5.9474497   5.9473078   5.9472655   5.9473198   5.9473953   5.9473162
   6.0329428   6.0362597   6.0361414   6.0355305   6.0354091   6.0332083
   6.0358347   6.0350151   6.0356039
 TTTTTTTTTTTTTTTTTTTTTTTTTTTTTT MOQGAD      TELAPSE       15.61 TCPU       14.46
 TTTTTTTTTTTTTTTTTTTTTTTTTTTTTT SHELLXN     TELAPSE       16.27 TCPU       15.11
 TTTTTTTTTTTTTTTTTTTTTTTTTTTTTT MONMO3      TELAPSE       16.41 TCPU       15.26
 NUMERICALLY INTEGRATED DENSITY     89.9998075409
 TTTTTTTTTTTTTTTTTTTTTTTTTTTTTT NUMDFT      TELAPSE       16.66 TCPU       15.51
 CYC   9 ETOT(AU) -5.702610427212E+02 DETOT  9.65E-07 tst  3.09E-08 PX  3.23E-04
 TTTTTTTTTTTTTTTTTTTTTTTTTTTTTT DIIS        TELAPSE       16.68 TCPU       15.53
 DIIS TEST: 0.69968E-05 AT SCF   CYCLE   9 - DIIS ACTIVE - HISTORY:     9 CYCLES
 TTTTTTTTTTTTTTTTTTTTTTTTTTTTTT FDIK        TELAPSE       16.86 TCPU       15.71
 POSSIBLY CONDUCTING STATE - EFERMI(AU) -1.8569434E-01 (RES. CHARGE  5.27E-12;IT.  8)
 TTTTTTTTTTTTTTTTTTTTTTTTTTTTTT PDIG        TELAPSE       17.00 TCPU       15.84
 CHARGE NORMALIZATION FACTOR   1.00000000
 TOTAL ATOMIC CHARGES:
   5.9473193   5.9473333   5.9473411   5.9473321   5.9473200   5.9473331
   6.0340716   6.0358405   6.0356678   6.0357599   6.0356879   6.0338750
   6.0358959   6.0335578   6.0356647
 TTTTTTTTTTTTTTTTTTTTTTTTTTTTTT MOQGAD      TELAPSE       17.00 TCPU       15.84
 TTTTTTTTTTTTTTTTTTTTTTTTTTTTTT SHELLXN     TELAPSE       17.65 TCPU       16.49
 TTTTTTTTTTTTTTTTTTTTTTTTTTTTTT MONMO3      TELAPSE       17.79 TCPU       16.63
 NUMERICALLY INTEGRATED DENSITY     89.9998075495
 TTTTTTTTTTTTTTTTTTTTTTTTTTTTTT NUMDFT      TELAPSE       18.04 TCPU       16.89
 CYC  10 ETOT(AU) -5.702610429832E+02 DETOT -2.62E-07 tst  2.10E-08 PX  2.45E-04
 TTTTTTTTTTTTTTTTTTTTTTTTTTTTTT DIIS        TELAPSE       18.06 TCPU       16.90
 DIIS TEST: 0.90273E-06 AT SCF   CYCLE  10 - DIIS ACTIVE - HISTORY:    10 CYCLES
 TTTTTTTTTTTTTTTTTTTTTTTTTTTTTT FDIK        TELAPSE       18.24 TCPU       17.08
 POSSIBLY CONDUCTING STATE - EFERMI(AU) -1.8570304E-01 (RES. CHARGE  1.26E-12;IT.  8)
 TTTTTTTTTTTTTTTTTTTTTTTTTTTTTT PDIG        TELAPSE       18.37 TCPU       17.21
 CHARGE NORMALIZATION FACTOR   1.00000000
 TOTAL ATOMIC CHARGES:
   5.9472860   5.9473281   5.9473374   5.9473105   5.9472891   5.9473125
   6.0328997   6.0353793   6.0359174   6.0360096   6.0366917   6.0334180
   6.0354625   6.0337068   6.0366513
 TTTTTTTTTTTTTTTTTTTTTTTTTTTTTT MOQGAD      TELAPSE       18.37 TCPU       17.21
 TTTTTTTTTTTTTTTTTTTTTTTTTTTTTT SHELLXN     TELAPSE       19.03 TCPU       17.86
 TTTTTTTTTTTTTTTTTTTTTTTTTTTTTT MONMO3      TELAPSE       19.17 TCPU       18.01
 NUMERICALLY INTEGRATED DENSITY     89.9998075550
 TTTTTTTTTTTTTTTTTTTTTTTTTTTTTT NUMDFT      TELAPSE       19.43 TCPU       18.26
 CYC  11 ETOT(AU) -5.702610417172E+02 DETOT  1.27E-06 tst  2.32E-08 PX  3.28E-04
 TTTTTTTTTTTTTTTTTTTTTTTTTTTTTT DIIS        TELAPSE       19.45 TCPU       18.29
 DIIS TEST: 0.68161E-05 AT SCF   CYCLE  11 - DIIS ACTIVE - HISTORY:    11 CYCLES
 TTTTTTTTTTTTTTTTTTTTTTTTTTTTTT FDIK        TELAPSE       19.63 TCPU       18.47
 POSSIBLY CONDUCTING STATE - EFERMI(AU) -1.8571244E-01 (RES. CHARGE  8.95E-13;IT.  8)
 TTTTTTTTTTTTTTTTTTTTTTTTTTTTTT PDIG        TELAPSE       19.76 TCPU       18.60
 CHARGE NORMALIZATION FACTOR   1.00000000
 TOTAL ATOMIC CHARGES:
   5.9472855   5.9472937   5.9472881   5.9472774   5.9472732   5.9472791
   6.0336205   6.0359163   6.0359876   6.0358759   6.0359290   6.0335897
   6.0358663   6.0335727   6.0359451
 TTTTTTTTTTTTTTTTTTTTTTTTTTTTTT MOQGAD      TELAPSE       19.76 TCPU       18.60
 TTTTTTTTTTTTTTTTTTTTTTTTTTTTTT SHELLXN     TELAPSE       20.42 TCPU       19.25
 TTTTTTTTTTTTTTTTTTTTTTTTTTTTTT MONMO3      TELAPSE       20.56 TCPU       19.39
 NUMERICALLY INTEGRATED DENSITY     89.9998075565
 TTTTTTTTTTTTTTTTTTTTTTTTTTTTTT NUMDFT      TELAPSE       20.82 TCPU       19.65
 CYC  12 ETOT(AU) -5.702610421226E+02 DETOT -4.05E-07 tst  1.71E-08 PX  1.57E-04
 TTTTTTTTTTTTTTTTTTTTTTTTTTTTTT DIIS        TELAPSE       20.84 TCPU       19.67
 DIIS TEST: 0.13361E-05 AT SCF   CYCLE  12 - DIIS ACTIVE - HISTORY:    12 CYCLES
 TTTTTTTTTTTTTTTTTTTTTTTTTTTTTT FDIK        TELAPSE       21.00 TCPU       19.83
 POSSIBLY CONDUCTING STATE - EFERMI(AU) -1.8571341E-01 (RES. CHARGE  1.29E-11;IT.  6)
 TTTTTTTTTTTTTTTTTTTTTTTTTTTTTT PDIG        TELAPSE       21.13 TCPU       19.96
 CHARGE NORMALIZATION FACTOR   1.00000000
 TOTAL ATOMIC CHARGES:
   5.9472783   5.9472771   5.9472888   5.9472817   5.9472837   5.9472837
   6.0336362   6.0358349   6.0357989   6.0359334   6.0358989   6.0337158
   6.0359209   6.0337074   6.0358602
 TTTTTTTTTTTTTTTTTTTTTTTTTTTTTT MOQGAD      TELAPSE       21.13 TCPU       19.96
 TTTTTTTTTTTTTTTTTTTTTTTTTTTTTT SHELLXN     TELAPSE       21.79 TCPU       20.61
 TTTTTTTTTTTTTTTTTTTTTTTTTTTTTT MONMO3      TELAPSE       21.93 TCPU       20.75
 NUMERICALLY INTEGRATED DENSITY     89.9998075563
 TTTTTTTTTTTTTTTTTTTTTTTTTTTTTT NUMDFT      TELAPSE       22.31 TCPU       21.13
 CYC  13 ETOT(AU) -5.702610421644E+02 DETOT -4.18E-08 tst  2.48E-10 PX  2.54E-05
 TTTTTTTTTTTTTTTTTTTTTTTTTTTTTT DIIS        TELAPSE       22.35 TCPU       21.17
 DIIS TEST: 0.91095E-06 AT SCF   CYCLE  13 - DIIS ACTIVE - HISTORY:    13 CYCLES
 TTTTTTTTTTTTTTTTTTTTTTTTTTTTTT FDIK        TELAPSE       22.53 TCPU       21.34
 POSSIBLY CONDUCTING STATE - EFERMI(AU) -1.8571788E-01 (RES. CHARGE  4.42E-10;IT.  6)
 TTTTTTTTTTTTTTTTTTTTTTTTTTTTTT PDIG        TELAPSE       22.66 TCPU       21.46
 CHARGE NORMALIZATION FACTOR   1.00000000
 TOTAL ATOMIC CHARGES:
   5.9472830   5.9472784   5.9472771   5.9472840   5.9472725   5.9472828
   6.0341239   6.0356767   6.0356477   6.0356516   6.0356541   6.0341069
   6.0356154   6.0341398   6.0357060
 TTTTTTTTTTTTTTTTTTTTTTTTTTTTTT MOQGAD      TELAPSE       22.66 TCPU       21.46
 TTTTTTTTTTTTTTTTTTTTTTTTTTTTTT SHELLXN     TELAPSE       23.32 TCPU       22.12
 TTTTTTTTTTTTTTTTTTTTTTTTTTTTTT MONMO3      TELAPSE       23.46 TCPU       22.26
 NUMERICALLY INTEGRATED DENSITY     89.9998075552
 TTTTTTTTTTTTTTTTTTTTTTTTTTTTTT NUMDFT      TELAPSE       23.72 TCPU       22.52
 CYC  14 ETOT(AU) -5.702610422478E+02 DETOT -8.34E-08 tst  2.55E-09 PX  7.69E-05
 TTTTTTTTTTTTTTTTTTTTTTTTTTTTTT DIIS        TELAPSE       23.74 TCPU       22.54
 DIIS TEST: 0.13700E-07 AT SCF   CYCLE  14 - DIIS ACTIVE - HISTORY:    14 CYCLES
 TTTTTTTTTTTTTTTTTTTTTTTTTTTTTT FDIK        TELAPSE       23.93 TCPU       22.69
 POSSIBLY CONDUCTING STATE - EFERMI(AU) -1.8571862E-01 (RES. CHARGE  1.07E-13;IT.  6)
 TTTTTTTTTTTTTTTTTTTTTTTTTTTTTT PDIG        TELAPSE       24.05 TCPU       22.82
 CHARGE NORMALIZATION FACTOR   1.00000000
 TOTAL ATOMIC CHARGES:
   5.9472787   5.9472795   5.9472822   5.9472746   5.9472745   5.9472760
   6.0341717   6.0355952   6.0356661   6.0356055   6.0356758   6.0341649
   6.0356753   6.0341811   6.0355987
 TTTTTTTTTTTTTTTTTTTTTTTTTTTTTT MOQGAD      TELAPSE       24.05 TCPU       22.82
 TTTTTTTTTTTTTTTTTTTTTTTTTTTTTT SHELLXN     TELAPSE       24.71 TCPU       23.47
 TTTTTTTTTTTTTTTTTTTTTTTTTTTTTT MONMO3      TELAPSE       24.85 TCPU       23.62
 NUMERICALLY INTEGRATED DENSITY     89.9998075551
 TTTTTTTTTTTTTTTTTTTTTTTTTTTTTT NUMDFT      TELAPSE       25.11 TCPU       23.87
 CYC  15 ETOT(AU) -5.702610422529E+02 DETOT -5.07E-09 tst  1.40E-10 PX  1.72E-05
 TTTTTTTTTTTTTTTTTTTTTTTTTTTTTT DIIS        TELAPSE       25.14 TCPU       23.90
 DIIS TEST: 0.33755E-07 AT SCF   CYCLE  15 - DIIS ACTIVE - HISTORY:    15 CYCLES
 TTTTTTTTTTTTTTTTTTTTTTTTTTTTTT FDIK        TELAPSE       25.32 TCPU       24.08
 POSSIBLY CONDUCTING STATE - EFERMI(AU) -1.8571852E-01 (RES. CHARGE  7.05E-10;IT.  4)
 TTTTTTTTTTTTTTTTTTTTTTTTTTTTTT PDIG        TELAPSE       25.44 TCPU       24.20
 CHARGE NORMALIZATION FACTOR   1.00000000
 TOTAL ATOMIC CHARGES:
   5.9472783   5.9472795   5.9472809   5.9472749   5.9472730   5.9472766
   6.0341254   6.0356610   6.0356536   6.0356526   6.0356509   6.0341486
   6.0356563   6.0341321   6.0356564
 TTTTTTTTTTTTTTTTTTTTTTTTTTTTTT MOQGAD      TELAPSE       25.44 TCPU       24.20
 TTTTTTTTTTTTTTTTTTTTTTTTTTTTTT SHELLXN     TELAPSE       26.10 TCPU       24.86
 TTTTTTTTTTTTTTTTTTTTTTTTTTTTTT MONMO3      TELAPSE       26.24 TCPU       25.00
 NUMERICALLY INTEGRATED DENSITY     89.9998075553
 TTTTTTTTTTTTTTTTTTTTTTTTTTTTTT NUMDFT      TELAPSE       26.49 TCPU       25.25
 CYC  16 ETOT(AU) -5.702610422497E+02 DETOT  3.19E-09 tst  5.52E-11 PX  8.93E-06
 TTTTTTTTTTTTTTTTTTTTTTTTTTTTTT DIIS        TELAPSE       26.52 TCPU       25.28
 DIIS TEST: 0.51316E-08 AT SCF   CYCLE  16 - DIIS ACTIVE - HISTORY:    16 CYCLES
 TTTTTTTTTTTTTTTTTTTTTTTTTTTTTT FDIK        TELAPSE       26.70 TCPU       25.45
 POSSIBLY CONDUCTING STATE - EFERMI(AU) -1.8571868E-01 (RES. CHARGE  3.55E-14;IT.  6)
 TTTTTTTTTTTTTTTTTTTTTTTTTTTTTT PDIG        TELAPSE       26.83 TCPU       25.58
 CHARGE NORMALIZATION FACTOR   1.00000000
 TOTAL ATOMIC CHARGES:
   5.9472786   5.9472785   5.9472811   5.9472748   5.9472739   5.9472757
   6.0341343   6.0356550   6.0356586   6.0356756   6.0356585   6.0341086
   6.0356577   6.0341312   6.0356577
 TTTTTTTTTTTTTTTTTTTTTTTTTTTTTT MOQGAD      TELAPSE       26.83 TCPU       25.58
 TTTTTTTTTTTTTTTTTTTTTTTTTTTTTT SHELLXN     TELAPSE       27.48 TCPU       26.24
 TTTTTTTTTTTTTTTTTTTTTTTTTTTTTT MONMO3      TELAPSE       27.62 TCPU       26.38
 NUMERICALLY INTEGRATED DENSITY     89.9998075554
 TTTTTTTTTTTTTTTTTTTTTTTTTTTTTT NUMDFT      TELAPSE       27.88 TCPU       26.63
 CYC  17 ETOT(AU) -5.702610422408E+02 DETOT  8.94E-09 tst  8.44E-12 PX  6.07E-06
 TTTTTTTTTTTTTTTTTTTTTTTTTTTTTT DIIS        TELAPSE       27.90 TCPU       26.66
 DIIS TEST: 0.33093E-08 AT SCF   CYCLE  17 - DIIS ACTIVE - HISTORY:    17 CYCLES
 TTTTTTTTTTTTTTTTTTTTTTTTTTTTTT FDIK        TELAPSE       28.09 TCPU       26.84
 POSSIBLY CONDUCTING STATE - EFERMI(AU) -1.8571890E-01 (RES. CHARGE  9.95E-14;IT.  6)
 TTTTTTTTTTTTTTTTTTTTTTTTTTTTTT PDIG        TELAPSE       28.22 TCPU       26.97
 CHARGE NORMALIZATION FACTOR   1.00000000
 TOTAL ATOMIC CHARGES:
   5.9472788   5.9472765   5.9472783   5.9472778   5.9472727   5.9472781
   6.0341081   6.0356669   6.0356683   6.0356705   6.0356676   6.0341080
   6.0356692   6.0341118   6.0356673
 TTTTTTTTTTTTTTTTTTTTTTTTTTTTTT MOQGAD      TELAPSE       28.22 TCPU       26.97
 TTTTTTTTTTTTTTTTTTTTTTTTTTTTTT SHELLXN     TELAPSE       28.87 TCPU       27.62
 TTTTTTTTTTTTTTTTTTTTTTTTTTTTTT MONMO3      TELAPSE       29.01 TCPU       27.77
 NUMERICALLY INTEGRATED DENSITY     89.9998075556
 TTTTTTTTTTTTTTTTTTTTTTTTTTTTTT NUMDFT      TELAPSE       29.38 TCPU       28.13
 CYC  18 ETOT(AU) -5.702610422332E+02 DETOT  7.55E-09 tst  3.60E-12 PX  4.15E-06
 TTTTTTTTTTTTTTTTTTTTTTTTTTTTTT DIIS        TELAPSE       29.42 TCPU       28.17
 DIIS TEST: 0.12551E-09 AT SCF   CYCLE  18 - DIIS ACTIVE - HISTORY:    18 CYCLES
 TTTTTTTTTTTTTTTTTTTTTTTTTTTTTT FDIK        TELAPSE       29.60 TCPU       28.35
 POSSIBLY CONDUCTING STATE - EFERMI(AU) -1.8571895E-01 (RES. CHARGE  6.12E-10;IT.  4)
 TTTTTTTTTTTTTTTTTTTTTTTTTTTTTT PDIG        TELAPSE       29.73 TCPU       28.47
 CHARGE NORMALIZATION FACTOR   1.00000000
 TOTAL ATOMIC CHARGES:
   5.9472784   5.9472778   5.9472796   5.9472762   5.9472729   5.9472771
   6.0341046   6.0356694   6.0356685   6.0356707   6.0356692   6.0341067
   6.0356712   6.0341080   6.0356695
 TTTTTTTTTTTTTTTTTTTTTTTTTTTTTT MOQGAD      TELAPSE       29.73 TCPU       28.48
 TTTTTTTTTTTTTTTTTTTTTTTTTTTTTT SHELLXN     TELAPSE       30.38 TCPU       29.13
 TTTTTTTTTTTTTTTTTTTTTTTTTTTTTT MONMO3      TELAPSE       30.52 TCPU       29.27
 NUMERICALLY INTEGRATED DENSITY     89.9998075557
 TTTTTTTTTTTTTTTTTTTTTTTTTTTTTT NUMDFT      TELAPSE       30.78 TCPU       29.53
 CYC  19 ETOT(AU) -5.702610422358E+02 DETOT -2.54E-09 tst  1.23E-13 PX  5.46E-07
 TTTTTTTTTTTTTTTTTTTTTTTTTTTTTT DIIS        TELAPSE       30.80 TCPU       29.55
 DIIS TEST: 0.17291E-10 AT SCF   CYCLE  19 - DIIS ACTIVE - HISTORY:    19 CYCLES
 TTTTTTTTTTTTTTTTTTTTTTTTTTTTTT FDIK        TELAPSE       30.98 TCPU       29.73
 POSSIBLY CONDUCTING STATE - EFERMI(AU) -1.8571893E-01 (RES. CHARGE  4.30E-11;IT.  4)
 TTTTTTTTTTTTTTTTTTTTTTTTTTTTTT PDIG        TELAPSE       31.11 TCPU       29.86
 CHARGE NORMALIZATION FACTOR   1.00000000
 TOTAL ATOMIC CHARGES:
   5.9472785   5.9472778   5.9472796   5.9472764   5.9472729   5.9472772
   6.0341032   6.0356709   6.0356690   6.0356715   6.0356706   6.0341052
   6.0356717   6.0341062   6.0356696
 TTTTTTTTTTTTTTTTTTTTTTTTTTTTTT MOQGAD      TELAPSE       31.11 TCPU       29.86
 TTTTTTTTTTTTTTTTTTTTTTTTTTTTTT SHELLXN     TELAPSE       31.77 TCPU       30.51
 TTTTTTTTTTTTTTTTTTTTTTTTTTTTTT MONMO3      TELAPSE       31.91 TCPU       30.65
 NUMERICALLY INTEGRATED DENSITY     89.9998075557
 TTTTTTTTTTTTTTTTTTTTTTTTTTTTTT NUMDFT      TELAPSE       32.28 TCPU       31.02
 CYC  20 ETOT(AU) -5.702610422318E+02 DETOT  3.94E-09 tst  3.34E-14 PX  3.27E-07
 TTTTTTTTTTTTTTTTTTTTTTTTTTTTTT DIIS        TELAPSE       32.32 TCPU       31.06
 DIIS TEST: 0.27413E-11 AT SCF   CYCLE  20 - DIIS ACTIVE - HISTORY:    19 CYCLES
 TTTTTTTTTTTTTTTTTTTTTTTTTTTTTT FDIK        TELAPSE       32.48 TCPU       31.22
 POSSIBLY CONDUCTING STATE - EFERMI(AU) -1.8571893E-01 (RES. CHARGE  1.78E-12;IT.  4)
 TTTTTTTTTTTTTTTTTTTTTTTTTTTTTT PDIG        TELAPSE       32.61 TCPU       31.35
 CHARGE NORMALIZATION FACTOR   1.00000000
 TOTAL ATOMIC CHARGES:
   5.9472785   5.9472778   5.9472796   5.9472763   5.9472729   5.9472772
   6.0341030   6.0356705   6.0356692   6.0356714   6.0356700   6.0341049
   6.0356723   6.0341059   6.0356703
 TTTTTTTTTTTTTTTTTTTTTTTTTTTTTT MOQGAD      TELAPSE       32.61 TCPU       31.35
 TTTTTTTTTTTTTTTTTTTTTTTTTTTTTT SHELLXN     TELAPSE       33.26 TCPU       32.00
 TTTTTTTTTTTTTTTTTTTTTTTTTTTTTT MONMO3      TELAPSE       33.41 TCPU       32.14
 NUMERICALLY INTEGRATED DENSITY     89.9998075557
 TTTTTTTTTTTTTTTTTTTTTTTTTTTTTT NUMDFT      TELAPSE       33.78 TCPU       32.52
 CYC  21 ETOT(AU) -5.702610422316E+02 DETOT  2.64E-10 tst  5.76E-15 PX  1.07E-07
 TTTTTTTTTTTTTTTTTTTTTTTTTTTTTT DIIS        TELAPSE       33.82 TCPU       32.56
 DIIS TEST: 0.69704E-12 AT SCF   CYCLE  21 - DIIS ACTIVE - HISTORY:    20 CYCLES
 TTTTTTTTTTTTTTTTTTTTTTTTTTTTTT FDIK        TELAPSE       34.00 TCPU       32.74
 POSSIBLY CONDUCTING STATE - EFERMI(AU) -1.8571892E-01 (RES. CHARGE  4.78E-12;IT.  4)
 TTTTTTTTTTTTTTTTTTTTTTTTTTTTTT PDIG        TELAPSE       34.13 TCPU       32.86
 CHARGE NORMALIZATION FACTOR   1.00000000
 TOTAL ATOMIC CHARGES:
   5.9472785   5.9472778   5.9472796   5.9472763   5.9472729   5.9472772
   6.0341029   6.0356707   6.0356690   6.0356713   6.0356703   6.0341048
   6.0356723   6.0341059   6.0356704
 TTTTTTTTTTTTTTTTTTTTTTTTTTTTTT MOQGAD      TELAPSE       34.13 TCPU       32.86
 TTTTTTTTTTTTTTTTTTTTTTTTTTTTTT SHELLXN     TELAPSE       34.78 TCPU       33.52
 +++ ENERGIES IN A.U. +++
 ::: EXT EL-POLE                                  -7.9833383094014E+02
 ::: EXT EL-SPHEROPOLE                             6.3642503650758E+00
 ::: BIELET ZONE E-E                               1.1853506268217E+03
 ::: TOTAL E-E                                     3.9338104624661E+02
 ::: TOTAL E-N + N-E                              -1.5661585930413E+03
 ::: TOTAL N-N                                     1.1590321491040E+02
 ::: KINETIC ENERGY                                5.6666039125508E+02
 ::: PSEUDO TOTAL   ENERGY                        -4.9021394062917E+02
 ::: VIRIAL COEFFICIENT                            1.0723325832785E+00
 TTTTTTTTTTTTTTTTTTTTTTTTTTTTTT MONMO3      TELAPSE       34.92 TCPU       33.66
 NUMERICALLY INTEGRATED DENSITY     89.9998075557
 TTTTTTTTTTTTTTTTTTTTTTTTTTTTTT NUMDFT      TELAPSE       35.18 TCPU       33.91
 CYC  22 ETOT(AU) -5.702610422317E+02 DETOT -1.47E-10 tst  1.61E-15 PX  1.07E-07

 == SCF ENDED - CONVERGENCE ON ENERGY      E(AU) -5.7026104223171E+02 CYCLES  22


 ENERGY EXPRESSION=HARTREE+FOCK EXCH*0.00000+(PBE        EXCH)*1.00000+PBE        CORR


 TOTAL ENERGY(DFT)(AU)( 22) -5.7026104223171E+02 DE-1.5E-10 tester 1.6E-15
 TTTTTTTTTTTTTTTTTTTTTTTTTTTTTT EDFT        TELAPSE       35.18 TCPU       33.91
 EIGENVECTORS IN FORTRAN UNIT  8
 TTTTTTTTTTTTTTTTTTTTTTTTTTTTTT END         TELAPSE       35.32 TCPU       34.05
 EEEEEEEEEE TERMINATION  DATE 31 10 2022 TIME 17:23:43.7
NODE    0 CPU TIME =        34.048
    TOTAL CPU TIME =      4336.969
Note: The following floating-point exceptions are signalling: IEEE_UNDERFLOW_FLAG IEEE_DENORMAL
Note: The following floating-point exceptions are signalling: IEEE_UNDERFLOW_FLAG IEEE_DENORMAL
Note: The following floating-point exceptions are signalling: IEEE_UNDERFLOW_FLAG IEEE_DENORMAL
Note: The following floating-point exceptions are signalling: IEEE_UNDERFLOW_FLAG IEEE_DENORMAL
Note: The following floating-point exceptions are signalling: IEEE_UNDERFLOW_FLAG IEEE_DENORMAL
Note: The following floating-point exceptions are signalling: IEEE_UNDERFLOW_FLAG IEEE_DENORMAL
Note: The following floating-point exceptions are signalling: IEEE_UNDERFLOW_FLAG IEEE_DENORMAL
Note: The following floating-point exceptions are signalling: IEEE_UNDERFLOW_FLAG IEEE_DENORMAL
Note: The following floating-point exceptions are signalling: IEEE_UNDERFLOW_FLAG IEEE_DENORMAL
Note: The following floating-point exceptions are signalling: IEEE_UNDERFLOW_FLAG IEEE_DENORMAL
Note: The following floating-point exceptions are signalling: IEEE_UNDERFLOW_FLAG IEEE_DENORMAL
Note: The following floating-point exceptions are signalling: IEEE_UNDERFLOW_FLAG IEEE_DENORMAL
Note: The following floating-point exceptions are signalling: IEEE_UNDERFLOW_FLAG IEEE_DENORMAL
Note: The following floating-point exceptions are signalling: IEEE_UNDERFLOW_FLAG IEEE_DENORMAL
Note: The following floating-point exceptions are signalling: IEEE_UNDERFLOW_FLAG IEEE_DENORMAL
Note: The following floating-point exceptions are signalling: IEEE_UNDERFLOW_FLAG IEEE_DENORMAL
Note: The following floating-point exceptions are signalling: IEEE_UNDERFLOW_FLAG IEEE_DENORMAL
Note: The following floating-point exceptions are signalling: IEEE_UNDERFLOW_FLAG IEEE_DENORMAL
Note: The following floating-point exceptions are signalling: IEEE_UNDERFLOW_FLAG IEEE_DENORMAL
Note: The following floating-point exceptions are signalling: IEEE_UNDERFLOW_FLAG IEEE_DENORMAL
Note: The following floating-point exceptions are signalling: IEEE_UNDERFLOW_FLAG IEEE_DENORMAL
Note: The following floating-point exceptions are signalling: IEEE_UNDERFLOW_FLAG IEEE_DENORMAL
Note: The following floating-point exceptions are signalling: IEEE_UNDERFLOW_FLAG IEEE_DENORMAL
Note: The following floating-point exceptions are signalling: IEEE_UNDERFLOW_FLAG IEEE_DENORMAL
Note: The following floating-point exceptions are signalling: IEEE_UNDERFLOW_FLAG IEEE_DENORMAL
Note: The following floating-point exceptions are signalling: IEEE_UNDERFLOW_FLAG IEEE_DENORMAL
Note: The following floating-point exceptions are signalling: IEEE_UNDERFLOW_FLAG IEEE_DENORMAL
Note: The following floating-point exceptions are signalling: IEEE_UNDERFLOW_FLAG IEEE_DENORMAL
Note: The following floating-point exceptions are signalling: IEEE_UNDERFLOW_FLAG IEEE_DENORMAL
Note: The following floating-point exceptions are signalling: IEEE_UNDERFLOW_FLAG IEEE_DENORMAL
Note: The following floating-point exceptions are signalling: IEEE_UNDERFLOW_FLAG IEEE_DENORMAL
Note: The following floating-point exceptions are signalling: IEEE_UNDERFLOW_FLAG IEEE_DENORMAL
Note: The following floating-point exceptions are signalling: IEEE_UNDERFLOW_FLAG IEEE_DENORMAL
Note: The following floating-point exceptions are signalling: IEEE_UNDERFLOW_FLAG IEEE_DENORMAL
Note: The following floating-point exceptions are signalling: IEEE_UNDERFLOW_FLAG IEEE_DENORMAL
Note: The following floating-point exceptions are signalling: IEEE_UNDERFLOW_FLAG IEEE_DENORMAL
Note: The following floating-point exceptions are signalling: IEEE_UNDERFLOW_FLAG IEEE_DENORMAL
Note: The following floating-point exceptions are signalling: IEEE_UNDERFLOW_FLAG IEEE_DENORMAL
Note: The following floating-point exceptions are signalling: IEEE_UNDERFLOW_FLAG IEEE_DENORMAL
Note: The following floating-point exceptions are signalling: IEEE_UNDERFLOW_FLAG IEEE_DENORMAL
Note: The following floating-point exceptions are signalling: IEEE_UNDERFLOW_FLAG IEEE_DENORMAL
Note: The following floating-point exceptions are signalling: IEEE_UNDERFLOW_FLAG IEEE_DENORMAL
Note: The following floating-point exceptions are signalling: IEEE_UNDERFLOW_FLAG IEEE_DENORMAL
Note: The following floating-point exceptions are signalling: IEEE_UNDERFLOW_FLAG IEEE_DENORMAL
Note: The following floating-point exceptions are signalling: IEEE_UNDERFLOW_FLAG IEEE_DENORMAL
Note: The following floating-point exceptions are signalling: IEEE_UNDERFLOW_FLAG IEEE_DENORMAL
Note: The following floating-point exceptions are signalling: IEEE_UNDERFLOW_FLAG IEEE_DENORMAL
Note: The following floating-point exceptions are signalling: IEEE_UNDERFLOW_FLAG IEEE_DENORMAL
Note: The following floating-point exceptions are signalling: IEEE_UNDERFLOW_FLAG IEEE_DENORMAL
Note: The following floating-point exceptions are signalling: IEEE_UNDERFLOW_FLAG IEEE_DENORMAL
Note: The following floating-point exceptions are signalling: IEEE_UNDERFLOW_FLAG IEEE_DENORMAL
Note: The following floating-point exceptions are signalling: IEEE_UNDERFLOW_FLAG IEEE_DENORMAL
Note: The following floating-point exceptions are signalling: IEEE_UNDERFLOW_FLAG IEEE_DENORMAL
Note: The following floating-point exceptions are signalling: IEEE_UNDERFLOW_FLAG IEEE_DENORMAL
Note: The following floating-point exceptions are signalling: IEEE_UNDERFLOW_FLAG IEEE_DENORMAL
Note: The following floating-point exceptions are signalling: IEEE_UNDERFLOW_FLAG IEEE_DENORMAL
Note: The following floating-point exceptions are signalling: IEEE_UNDERFLOW_FLAG IEEE_DENORMAL
Note: The following floating-point exceptions are signalling: IEEE_UNDERFLOW_FLAG IEEE_DENORMAL
Note: The following floating-point exceptions are signalling: IEEE_UNDERFLOW_FLAG IEEE_DENORMAL
Note: The following floating-point exceptions are signalling: IEEE_UNDERFLOW_FLAG IEEE_DENORMAL
Note: The following floating-point exceptions are signalling: IEEE_UNDERFLOW_FLAG IEEE_DENORMAL
Note: The following floating-point exceptions are signalling: IEEE_UNDERFLOW_FLAG IEEE_DENORMAL
Note: The following floating-point exceptions are signalling: IEEE_UNDERFLOW_FLAG IEEE_DENORMAL
Note: The following floating-point exceptions are signalling: IEEE_UNDERFLOW_FLAG IEEE_DENORMAL
Note: The following floating-point exceptions are signalling: IEEE_UNDERFLOW_FLAG IEEE_DENORMAL
Note: The following floating-point exceptions are signalling: IEEE_UNDERFLOW_FLAG IEEE_DENORMAL
Note: The following floating-point exceptions are signalling: IEEE_UNDERFLOW_FLAG IEEE_DENORMAL
Note: The following floating-point exceptions are signalling: IEEE_UNDERFLOW_FLAG IEEE_DENORMAL
Note: The following floating-point exceptions are signalling: IEEE_UNDERFLOW_FLAG IEEE_DENORMAL
Note: The following floating-point exceptions are signalling: IEEE_UNDERFLOW_FLAG IEEE_DENORMAL
Note: The following floating-point exceptions are signalling: IEEE_UNDERFLOW_FLAG IEEE_DENORMAL
Note: The following floating-point exceptions are signalling: IEEE_UNDERFLOW_FLAG IEEE_DENORMAL
Note: The following floating-point exceptions are signalling: IEEE_UNDERFLOW_FLAG IEEE_DENORMAL
Note: The following floating-point exceptions are signalling: IEEE_UNDERFLOW_FLAG IEEE_DENORMAL
Note: The following floating-point exceptions are signalling: IEEE_UNDERFLOW_FLAG IEEE_DENORMAL
Note: The following floating-point exceptions are signalling: IEEE_UNDERFLOW_FLAG IEEE_DENORMAL
Note: The following floating-point exceptions are signalling: IEEE_UNDERFLOW_FLAG IEEE_DENORMAL
Note: The following floating-point exceptions are signalling: IEEE_UNDERFLOW_FLAG IEEE_DENORMAL
Note: The following floating-point exceptions are signalling: IEEE_UNDERFLOW_FLAG IEEE_DENORMAL
Note: The following floating-point exceptions are signalling: IEEE_UNDERFLOW_FLAG IEEE_DENORMAL
Note: The following floating-point exceptions are signalling: IEEE_UNDERFLOW_FLAG IEEE_DENORMAL
Note: The following floating-point exceptions are signalling: IEEE_UNDERFLOW_FLAG IEEE_DENORMAL
Note: The following floating-point exceptions are signalling: IEEE_UNDERFLOW_FLAG IEEE_DENORMAL
Note: The following floating-point exceptions are signalling: IEEE_UNDERFLOW_FLAG IEEE_DENORMAL
Note: The following floating-point exceptions are signalling: IEEE_UNDERFLOW_FLAG IEEE_DENORMAL
Note: The following floating-point exceptions are signalling: IEEE_UNDERFLOW_FLAG IEEE_DENORMAL
Note: The following floating-point exceptions are signalling: IEEE_UNDERFLOW_FLAG IEEE_DENORMAL
Note: The following floating-point exceptions are signalling: IEEE_UNDERFLOW_FLAG IEEE_DENORMAL
Note: The following floating-point exceptions are signalling: IEEE_UNDERFLOW_FLAG IEEE_DENORMAL
Note: The following floating-point exceptions are signalling: IEEE_UNDERFLOW_FLAG IEEE_DENORMAL
Note: The following floating-point exceptions are signalling: IEEE_UNDERFLOW_FLAG IEEE_DENORMAL
Note: The following floating-point exceptions are signalling: IEEE_UNDERFLOW_FLAG IEEE_DENORMAL
Note: The following floating-point exceptions are signalling: IEEE_UNDERFLOW_FLAG IEEE_DENORMAL
Note: The following floating-point exceptions are signalling: IEEE_UNDERFLOW_FLAG IEEE_DENORMAL
Note: The following floating-point exceptions are signalling: IEEE_UNDERFLOW_FLAG IEEE_DENORMAL
Note: The following floating-point exceptions are signalling: IEEE_UNDERFLOW_FLAG IEEE_DENORMAL
Note: The following floating-point exceptions are signalling: IEEE_UNDERFLOW_FLAG IEEE_DENORMAL
Note: The following floating-point exceptions are signalling: IEEE_UNDERFLOW_FLAG IEEE_DENORMAL
Note: The following floating-point exceptions are signalling: IEEE_UNDERFLOW_FLAG IEEE_DENORMAL
Note: The following floating-point exceptions are signalling: IEEE_UNDERFLOW_FLAG IEEE_DENORMAL
Note: The following floating-point exceptions are signalling: IEEE_UNDERFLOW_FLAG IEEE_DENORMAL
Note: The following floating-point exceptions are signalling: IEEE_UNDERFLOW_FLAG IEEE_DENORMAL
Note: The following floating-point exceptions are signalling: IEEE_UNDERFLOW_FLAG IEEE_DENORMAL
Note: The following floating-point exceptions are signalling: IEEE_UNDERFLOW_FLAG IEEE_DENORMAL
Note: The following floating-point exceptions are signalling: IEEE_UNDERFLOW_FLAG IEEE_DENORMAL
Note: The following floating-point exceptions are signalling: IEEE_UNDERFLOW_FLAG IEEE_DENORMAL
Note: The following floating-point exceptions are signalling: IEEE_UNDERFLOW_FLAG IEEE_DENORMAL
Note: The following floating-point exceptions are signalling: IEEE_UNDERFLOW_FLAG IEEE_DENORMAL
Note: The following floating-point exceptions are signalling: IEEE_UNDERFLOW_FLAG IEEE_DENORMAL
Note: The following floating-point exceptions are signalling: IEEE_UNDERFLOW_FLAG IEEE_DENORMAL
Note: The following floating-point exceptions are signalling: IEEE_UNDERFLOW_FLAG IEEE_DENORMAL
Note: The following floating-point exceptions are signalling: IEEE_UNDERFLOW_FLAG IEEE_DENORMAL
Note: The following floating-point exceptions are signalling: IEEE_UNDERFLOW_FLAG IEEE_DENORMAL
Note: The following floating-point exceptions are signalling: IEEE_UNDERFLOW_FLAG IEEE_DENORMAL
Note: The following floating-point exceptions are signalling: IEEE_UNDERFLOW_FLAG IEEE_DENORMAL
Note: The following floating-point exceptions are signalling: IEEE_UNDERFLOW_FLAG IEEE_DENORMAL
Note: The following floating-point exceptions are signalling: IEEE_UNDERFLOW_FLAG IEEE_DENORMAL
Note: The following floating-point exceptions are signalling: IEEE_UNDERFLOW_FLAG IEEE_DENORMAL
Note: The following floating-point exceptions are signalling: IEEE_UNDERFLOW_FLAG IEEE_DENORMAL
Note: The following floating-point exceptions are signalling: IEEE_UNDERFLOW_FLAG IEEE_DENORMAL
Note: The following floating-point exceptions are signalling: IEEE_UNDERFLOW_FLAG IEEE_DENORMAL
Note: The following floating-point exceptions are signalling: IEEE_UNDERFLOW_FLAG IEEE_DENORMAL
Note: The following floating-point exceptions are signalling: IEEE_UNDERFLOW_FLAG IEEE_DENORMAL
Note: The following floating-point exceptions are signalling: IEEE_UNDERFLOW_FLAG IEEE_DENORMAL
Note: The following floating-point exceptions are signalling: IEEE_UNDERFLOW_FLAG IEEE_DENORMAL
Note: The following floating-point exceptions are signalling: IEEE_UNDERFLOW_FLAG IEEE_DENORMAL
Note: The following floating-point exceptions are signalling: IEEE_UNDERFLOW_FLAG IEEE_DENORMAL
Note: The following floating-point exceptions are signalling: IEEE_UNDERFLOW_FLAG IEEE_DENORMAL
end_date Mon Oct 31 17:23:44 GMT 2022
 
TEMPORARY          SAVED (in /mnt/lustre/a2fs-work2/work/e05/e05/bcamino/quantum_computing/test_model)
fort.34            graphene_3v_L.gui 1311     Oct 31 17:23
fort.9             graphene_3v_L.f9  1350112  Oct 31 17:23
fort.98            graphene_3v_L.f98 3527714  Oct 31 17:23
 
Disk usage:<du -m>
401	/mnt/lustre/a2fs-work2/work/e05/e05/bcamino/quantum_computing/test_model/tmp_graphene_3v_L_
</du -m>
Filesystem                                          1K-blocks          Used     Available Use% Mounted on
10.253.102.2@o2ib1:10.253.102.3@o2ib1:/cls01097 3582178503216 1809151183592 1736833478308  52% /mnt/lustre/a2fs-work2
10.253.102.2@o2ib1:10.253.102.3@o2ib1:/cls01097 3582178503216 1809151183592 1736833478308  52% /mnt/lustre/a2fs-work2
